17
btz-opt.log	Energy: -273082.8353148
C	-1.4434	-1.3731	0.00002
C	-0.7131	-0.1626	-0.00007
C	-0.7152	-2.5432	0.0001
N	1.1409	1.12	-0.00023
N	0.0014	1.8051	-0.00004
N	-1.1379	1.1229	-0.00021
C	-0.0007	3.2589	0.00025
H	-1.2359	-3.4968	0.00013
H	1.2311	-3.4994	0.00014
H	1.0373	3.5878	-0.00013
H	-0.5169	3.6234	0.89178
H	-0.5177	3.6236	-0.89072
C	0.7122	-2.5448	0.0001
C	0.7134	-0.1644	-0.00006
C	1.4421	-1.375	0.00002
H	2.5274	-1.3741	0.0
H	-2.5287	-1.3699	-0.00001
