9
t-opt.log	Energy: -347014.3856125
C          0.01138        1.24341        0.00000
C          1.27251        0.71492        0.00000
S         -1.19952        0.00000        0.00000
H          2.17289       -1.32010        0.00000
H          2.17289        1.32010        0.00000
C          1.27251       -0.71492        0.00000
C          0.01138       -1.24341        0.00000
H         -0.28010       -2.28516        0.00000
H         -0.28010        2.28516        0.00000
