 Entering Gaussian System, Link 0=g16
 Input=oligomer-8.com
 Output=oligomer-8.log
 Initial command:
 /opt/apps/chemistry/Gaussian/g16/l1.exe "/tmp/Gau-4484.inp" -scrdir="/tmp/"
 Entering Link 1 = /opt/apps/chemistry/Gaussian/g16/l1.exe PID=      4486.
  
 Copyright (c) 1988,1990,1992,1993,1995,1998,2003,2009,2016,
            Gaussian, Inc.  All Rights Reserved.
  
 This is part of the Gaussian(R) 16 program.  It is based on
 the Gaussian(R) 09 system (copyright 2009, Gaussian, Inc.),
 the Gaussian(R) 03 system (copyright 2003, Gaussian, Inc.),
 the Gaussian(R) 98 system (copyright 1998, Gaussian, Inc.),
 the Gaussian(R) 94 system (copyright 1995, Gaussian, Inc.),
 the Gaussian 92(TM) system (copyright 1992, Gaussian, Inc.),
 the Gaussian 90(TM) system (copyright 1990, Gaussian, Inc.),
 the Gaussian 88(TM) system (copyright 1988, Gaussian, Inc.),
 the Gaussian 86(TM) system (copyright 1986, Carnegie Mellon
 University), and the Gaussian 82(TM) system (copyright 1983,
 Carnegie Mellon University). Gaussian is a federally registered
 trademark of Gaussian, Inc.
  
 This software contains proprietary and confidential information,
 including trade secrets, belonging to Gaussian, Inc.
  
 This software is provided under written license and may be
 used, copied, transmitted, or stored only in accord with that
 written license.
  
 The following legend is applicable only to US Government
 contracts under FAR:
  
                    RESTRICTED RIGHTS LEGEND
  
 Use, reproduction and disclosure by the US Government is
 subject to restrictions as set forth in subparagraphs (a)
 and (c) of the Commercial Computer Software - Restricted
 Rights clause in FAR 52.227-19.
  
 Gaussian, Inc.
 340 Quinnipiac St., Bldg. 40, Wallingford CT 06492
  
  
 ---------------------------------------------------------------
 Warning -- This program may not be used in any manner that
 competes with the business of Gaussian, Inc. or will provide
 assistance to any competitor of Gaussian, Inc.  The licensee
 of this program is prohibited from giving any competitor of
 Gaussian, Inc. access to this program.  By using this program,
 the user acknowledges that Gaussian, Inc. is engaged in the
 business of creating and licensing software in the field of
 computational chemistry and represents and warrants to the
 licensee that it is not a competitor of Gaussian, Inc. and that
 it will not use this program in any manner prohibited above.
 ---------------------------------------------------------------
  

 Cite this work as:
 Gaussian 16, Revision A.03,
 M. J. Frisch, G. W. Trucks, H. B. Schlegel, G. E. Scuseria, 
 M. A. Robb, J. R. Cheeseman, G. Scalmani, V. Barone, 
 G. A. Petersson, H. Nakatsuji, X. Li, M. Caricato, A. V. Marenich, 
 J. Bloino, B. G. Janesko, R. Gomperts, B. Mennucci, H. P. Hratchian, 
 J. V. Ortiz, A. F. Izmaylov, J. L. Sonnenberg, D. Williams-Young, 
 F. Ding, F. Lipparini, F. Egidi, J. Goings, B. Peng, A. Petrone, 
 T. Henderson, D. Ranasinghe, V. G. Zakrzewski, J. Gao, N. Rega, 
 G. Zheng, W. Liang, M. Hada, M. Ehara, K. Toyota, R. Fukuda, 
 J. Hasegawa, M. Ishida, T. Nakajima, Y. Honda, O. Kitao, H. Nakai, 
 T. Vreven, K. Throssell, J. A. Montgomery, Jr., J. E. Peralta, 
 F. Ogliaro, M. J. Bearpark, J. J. Heyd, E. N. Brothers, K. N. Kudin, 
 V. N. Staroverov, T. A. Keith, R. Kobayashi, J. Normand, 
 K. Raghavachari, A. P. Rendell, J. C. Burant, S. S. Iyengar, 
 J. Tomasi, M. Cossi, J. M. Millam, M. Klene, C. Adamo, R. Cammi, 
 J. W. Ochterski, R. L. Martin, K. Morokuma, O. Farkas, 
 J. B. Foresman, and D. J. Fox, Gaussian, Inc., Wallingford CT, 2016.
 
 ******************************************
 Gaussian 16:  ES64L-G16RevA.03 25-Dec-2016
                10-Oct-2023 
 ******************************************
 %nproc=10
 Will use up to   10 processors via shared memory.
 %mem=9GB
 %chk=TIFBT8.chk
 -------------------
 #p opt b3lyp/3-21g*
 -------------------
 1/18=20,19=15,26=3,38=1/1,3;
 2/9=110,12=2,17=6,18=5,40=1/2;
 3/5=5,7=1,11=2,25=1,30=1,71=1,74=-5/1,2,3;
 4//1;
 5/5=2,38=5/2;
 6/7=2,8=2,9=2,10=2,28=1/1;
 7//1,2,3,16;
 1/18=20,19=15,26=3/3(2);
 2/9=110/2;
 99//99;
 2/9=110/2;
 3/5=5,7=1,11=2,25=1,30=1,71=1,74=-5/1,2,3;
 4/5=5,16=3,69=1/1;
 5/5=2,38=5/2;
 7//1,2,3,16;
 1/18=20,19=15,26=3/3(-5);
 2/9=110/2;
 6/7=2,8=2,9=2,10=2,19=2,28=1/1;
 99/9=1/99;
 Leave Link    1 at Tue Oct 10 20:51:59 2023, MaxMem=  1207959552 cpu:               0.6 elap:               0.1
 (Enter /opt/apps/chemistry/Gaussian/g16/l101.exe)
 ----------------------------------------------
 Gaussian optimization calculation on oligomer8
 ----------------------------------------------
 Symbolic Z-matrix:
 Charge =  0 Multiplicity = 1
 C                     0.        0.        0. 
 C                    -0.76861   1.17807   0.23067 
 C                    -0.66871  -1.1854   -0.16311 
 N                    -0.28739   2.41509   0.41124 
 N                    -2.80963   2.28236   0.51006 
 S                    -1.59634   3.3866    0.63376 
 H                    -2.57341  -2.22849  -0.24367 
 H                    -0.10769  -2.09875  -0.34028 
 C                    -2.09908  -1.26067  -0.10707 
 C                    -2.21698   1.10185   0.28741 
 C                    -2.87355  -0.15121   0.11258 
 H                    -3.95641  -0.19983   0.15638 
 C                     16.69197  -0.75594   0.21374 
 C                     16.04118   0.37984   0.53909 
 S                     15.60478  -2.09141  -0.17007 
 C                     9.92135   0.64947   0.61216 
 C                     10.44074  -0.60466   0.25263 
 C                     9.58848  -1.68497  -0.05823 
 C                     8.21547  -1.49201  -0.00413 
 C                     7.69611  -0.23795   0.35556 
 C                     8.54836   0.84236   0.66647 
 C                     7.08742  -2.50029  -0.29492 
 C                     5.85136  -1.65203  -0.05223 
 C                     6.23183  -0.33172   0.32727 
 C                     11.04931   1.65794   0.90229 
 C                     12.28541   0.80966   0.65989 
 C                     11.90501  -0.5108    0.28086 
 C                     4.51869  -2.02391  -0.16023 
 C                     3.52985  -1.07014   0.11284 
 C                     3.93168   0.24412   0.49086 
 C                     5.27819   0.62852   0.60248 
 C                     13.61802   1.18173   0.76746 
 C                     14.60694   0.22797   0.49461 
 C                     14.20523  -1.08659   0.11756 
 C                     12.85876  -1.47116   0.00632 
 C                     7.20327  -3.70265   0.67452 
 C                     7.07156  -2.99784  -1.75203 
 C                     11.06544   2.15505   2.35961 
 C                     10.93319   2.86059  -0.0667 
 H                     8.14309   1.80602   0.94309 
 H                     9.99377  -2.64878  -0.33436 
 H                     13.91672   2.19065   1.05702 
 H                     12.57167  -2.48179  -0.28346 
 H                     4.21992  -3.03263  -0.45038 
 H                     5.56539   1.63884   0.89327 
 H                     8.12643  -4.26559   0.53626 
 H                     6.35584  -4.38768   0.49814 
 H                     7.21505  -3.37175   1.71387 
 H                     6.98925  -2.16046  -2.45617 
 H                     6.22176  -3.67122  -1.9672 
 H                     7.99225  -3.54924  -1.9314 
 H                     10.01036   3.42374   0.07248 
 H                     10.92054   2.52997  -1.10617 
 H                     11.78093   3.54527   0.10942 
 H                     10.14441   2.70566   2.53962 
 H                     11.91483   2.829     2.57474 
 H                     11.1487   1.31751   3.06353 
 H                     1.58651  -2.1494   -0.19939 
 H                     16.55015   1.30771   0.80553 
 S                     2.53216   1.24912   0.77816 
 C                     2.09557  -1.22174   0.06771 
 C                     1.44487  -0.0861    0.39362 
 C                     21.03439  -0.19983   0.15638 
 C                     20.49095  -1.47227   0.50215 
 C                     20.16383   0.80613  -0.17078 
 N                     21.18653  -2.56326   0.84668 
 N                     18.68364  -2.91628   0.84526 
 S                     20.07484  -3.74104   1.14153 
 H                     18.10407   1.44089  -0.43973 
 H                     20.55087   1.78601  -0.43835 
 C                     18.74443   0.60594  -0.17159 
 C                     19.05369  -1.67499   0.50133 
 C                     18.18289  -0.60203   0.15477 
 C                     37.56536   2.53756   0.5822 
 C                     36.67874   3.50878   0.88221 
 S                     36.79814   1.0073    0.15506 
 C                     30.64037   2.48894   0.71382 
 C                     31.42476   1.37476   0.3744 
 C                     30.83073   0.14258   0.02957 
 C                     29.44675   0.04296   0.02955 
 C                     28.6624   1.15708   0.36912 
 C                     29.25642   2.38926   0.714 
 C                     28.56739  -1.17677  -0.30608 
 C                     27.17247  -0.60864  -0.11192 
 C                     27.25257   0.7587    0.28302 
 C                     31.51963   3.70886   1.04879 
 C                     32.91458   3.14069   0.85491 
 C                     32.83455   1.77322   0.46045 
 C                     25.95265  -1.25063  -0.27263 
 C                     24.77595  -0.52778  -0.03829 
 C                     24.87825   0.83814   0.356 
 C                     26.10883   1.49525   0.52089 
 C                     34.13432   3.78287   1.01519 
 C                     35.31108   3.06004   0.78108 
 C                     35.20892   1.69385   0.38776 
 C                     33.9784   1.03657   0.22326 
 C                     28.89552  -2.33662   0.66653 
 C                     28.71235  -1.65375  -1.76295 
 C                     31.37501   4.18545   2.50588 
 C                     31.19114   4.86892   0.07661 
 H                     28.64765   3.24408   0.97493 
 H                     31.43952  -0.71239  -0.23086 
 H                     34.20333   4.8294    1.31685 
 H                     33.9211  -0.00919  -0.07817 
 H                     25.88355  -2.29698  -0.57488 
 H                     26.16627   2.54072   0.82331 
 H                     29.92087  -2.69231   0.56451 
 H                     28.2181  -3.18249   0.45648 
 H                     28.79762  -2.01977   1.70571 
 H                     28.48334  -0.84607  -2.46934 
 H                     28.03166  -2.48839  -2.01185 
 H                     29.73443  -1.99831  -1.90614 
 H                     30.16605   5.22487   0.17956 
 H                     31.28816   4.55216  -0.96272 
 H                     31.86895   5.71452   0.28641 
 H                     30.35274   4.52915   2.64969 
 H                     32.05519   5.02055   2.75472 
 H                     31.605    3.37781   3.21208 
 H                     23.11578  -1.98763  -0.42756 
 H                     36.97108   4.52034   1.16902 
 S                     23.28904   1.52487   0.58837 
 C                     23.40823  -0.97626  -0.14008 
 C                     22.5217  -0.00515   0.16051 
 H                     38.64304   2.6163    0.5822 
 
 ITRead=  0  0  0  0  0  0  0  0  0  0  0  0  0  0  0  0  0  0  0  0
 ITRead=  0  0  0  0  0  0  0  0  0  0  0  0  0  0  0  0  0  0  0  0
 ITRead=  0  0  0  0  0  0  0  0  0  0  0  0  0  0  0  0  0  0  0  0
 ITRead=  0  0  0  0  0  0  0  0  0  0  0  0  0  0  0  0  0  0  0  0
 ITRead=  0  0  0  0  0  0  0  0  0  0  0  0  0  0  0  0  0  0  0  0
 ITRead=  0  0  0  0  0  0  0  0  0  0  0  0  0  0  0  0  0  0  0  0
 ITRead=  0  0  0  0
 MicOpt= -1 -1 -1 -1 -1 -1 -1 -1 -1 -1 -1 -1 -1 -1 -1 -1 -1 -1 -1 -1
 MicOpt= -1 -1 -1 -1 -1 -1 -1 -1 -1 -1 -1 -1 -1 -1 -1 -1 -1 -1 -1 -1
 MicOpt= -1 -1 -1 -1 -1 -1 -1 -1 -1 -1 -1 -1 -1 -1 -1 -1 -1 -1 -1 -1
 MicOpt= -1 -1 -1 -1 -1 -1 -1 -1 -1 -1 -1 -1 -1 -1 -1 -1 -1 -1 -1 -1
 MicOpt= -1 -1 -1 -1 -1 -1 -1 -1 -1 -1 -1 -1 -1 -1 -1 -1 -1 -1 -1 -1
 MicOpt= -1 -1 -1 -1 -1 -1 -1 -1 -1 -1 -1 -1 -1 -1 -1 -1 -1 -1 -1 -1
 MicOpt= -1 -1 -1 -1
 NAtoms=    124 NQM=      124 NQMF=       0 NMMI=      0 NMMIF=      0
                NMic=       0 NMicF=      0.
                    Isotopes and Nuclear Properties:
 (Nuclear quadrupole moments (NQMom) in fm**2, nuclear magnetic moments (NMagM)
  in nuclear magnetons)

  Atom         1           2           3           4           5           6           7           8           9          10
 IAtWgt=          12          12          12          14          14          32           1           1          12          12
 AtmWgt=  12.0000000  12.0000000  12.0000000  14.0030740  14.0030740  31.9720718   1.0078250   1.0078250  12.0000000  12.0000000
 NucSpn=           0           0           0           2           2           0           1           1           0           0
 AtZEff=  -0.0000000  -0.0000000  -0.0000000  -0.0000000  -0.0000000  -0.0000000  -0.0000000  -0.0000000  -0.0000000  -0.0000000
 NQMom=    0.0000000   0.0000000   0.0000000   2.0440000   2.0440000   0.0000000   0.0000000   0.0000000   0.0000000   0.0000000
 NMagM=    0.0000000   0.0000000   0.0000000   0.4037610   0.4037610   0.0000000   2.7928460   2.7928460   0.0000000   0.0000000
 AtZNuc=   6.0000000   6.0000000   6.0000000   7.0000000   7.0000000  16.0000000   1.0000000   1.0000000   6.0000000   6.0000000

  Atom        11          12          13          14          15          16          17          18          19          20
 IAtWgt=          12           1          12          12          32          12          12          12          12          12
 AtmWgt=  12.0000000   1.0078250  12.0000000  12.0000000  31.9720718  12.0000000  12.0000000  12.0000000  12.0000000  12.0000000
 NucSpn=           0           1           0           0           0           0           0           0           0           0
 AtZEff=  -0.0000000  -0.0000000  -0.0000000  -0.0000000  -0.0000000  -0.0000000  -0.0000000  -0.0000000  -0.0000000  -0.0000000
 NQMom=    0.0000000   0.0000000   0.0000000   0.0000000   0.0000000   0.0000000   0.0000000   0.0000000   0.0000000   0.0000000
 NMagM=    0.0000000   2.7928460   0.0000000   0.0000000   0.0000000   0.0000000   0.0000000   0.0000000   0.0000000   0.0000000
 AtZNuc=   6.0000000   1.0000000   6.0000000   6.0000000  16.0000000   6.0000000   6.0000000   6.0000000   6.0000000   6.0000000

  Atom        21          22          23          24          25          26          27          28          29          30
 IAtWgt=          12          12          12          12          12          12          12          12          12          12
 AtmWgt=  12.0000000  12.0000000  12.0000000  12.0000000  12.0000000  12.0000000  12.0000000  12.0000000  12.0000000  12.0000000
 NucSpn=           0           0           0           0           0           0           0           0           0           0
 AtZEff=  -0.0000000  -0.0000000  -0.0000000  -0.0000000  -0.0000000  -0.0000000  -0.0000000  -0.0000000  -0.0000000  -0.0000000
 NQMom=    0.0000000   0.0000000   0.0000000   0.0000000   0.0000000   0.0000000   0.0000000   0.0000000   0.0000000   0.0000000
 NMagM=    0.0000000   0.0000000   0.0000000   0.0000000   0.0000000   0.0000000   0.0000000   0.0000000   0.0000000   0.0000000
 AtZNuc=   6.0000000   6.0000000   6.0000000   6.0000000   6.0000000   6.0000000   6.0000000   6.0000000   6.0000000   6.0000000

  Atom        31          32          33          34          35          36          37          38          39          40
 IAtWgt=          12          12          12          12          12          12          12          12          12           1
 AtmWgt=  12.0000000  12.0000000  12.0000000  12.0000000  12.0000000  12.0000000  12.0000000  12.0000000  12.0000000   1.0078250
 NucSpn=           0           0           0           0           0           0           0           0           0           1
 AtZEff=  -0.0000000  -0.0000000  -0.0000000  -0.0000000  -0.0000000  -0.0000000  -0.0000000  -0.0000000  -0.0000000  -0.0000000
 NQMom=    0.0000000   0.0000000   0.0000000   0.0000000   0.0000000   0.0000000   0.0000000   0.0000000   0.0000000   0.0000000
 NMagM=    0.0000000   0.0000000   0.0000000   0.0000000   0.0000000   0.0000000   0.0000000   0.0000000   0.0000000   2.7928460
 AtZNuc=   6.0000000   6.0000000   6.0000000   6.0000000   6.0000000   6.0000000   6.0000000   6.0000000   6.0000000   1.0000000

  Atom        41          42          43          44          45          46          47          48          49          50
 IAtWgt=           1           1           1           1           1           1           1           1           1           1
 AtmWgt=   1.0078250   1.0078250   1.0078250   1.0078250   1.0078250   1.0078250   1.0078250   1.0078250   1.0078250   1.0078250
 NucSpn=           1           1           1           1           1           1           1           1           1           1
 AtZEff=  -0.0000000  -0.0000000  -0.0000000  -0.0000000  -0.0000000  -0.0000000  -0.0000000  -0.0000000  -0.0000000  -0.0000000
 NQMom=    0.0000000   0.0000000   0.0000000   0.0000000   0.0000000   0.0000000   0.0000000   0.0000000   0.0000000   0.0000000
 NMagM=    2.7928460   2.7928460   2.7928460   2.7928460   2.7928460   2.7928460   2.7928460   2.7928460   2.7928460   2.7928460
 AtZNuc=   1.0000000   1.0000000   1.0000000   1.0000000   1.0000000   1.0000000   1.0000000   1.0000000   1.0000000   1.0000000

  Atom        51          52          53          54          55          56          57          58          59          60
 IAtWgt=           1           1           1           1           1           1           1           1           1          32
 AtmWgt=   1.0078250   1.0078250   1.0078250   1.0078250   1.0078250   1.0078250   1.0078250   1.0078250   1.0078250  31.9720718
 NucSpn=           1           1           1           1           1           1           1           1           1           0
 AtZEff=  -0.0000000  -0.0000000  -0.0000000  -0.0000000  -0.0000000  -0.0000000  -0.0000000  -0.0000000  -0.0000000  -0.0000000
 NQMom=    0.0000000   0.0000000   0.0000000   0.0000000   0.0000000   0.0000000   0.0000000   0.0000000   0.0000000   0.0000000
 NMagM=    2.7928460   2.7928460   2.7928460   2.7928460   2.7928460   2.7928460   2.7928460   2.7928460   2.7928460   0.0000000
 AtZNuc=   1.0000000   1.0000000   1.0000000   1.0000000   1.0000000   1.0000000   1.0000000   1.0000000   1.0000000  16.0000000

  Atom        61          62          63          64          65          66          67          68          69          70
 IAtWgt=          12          12          12          12          12          14          14          32           1           1
 AtmWgt=  12.0000000  12.0000000  12.0000000  12.0000000  12.0000000  14.0030740  14.0030740  31.9720718   1.0078250   1.0078250
 NucSpn=           0           0           0           0           0           2           2           0           1           1
 AtZEff=  -0.0000000  -0.0000000  -0.0000000  -0.0000000  -0.0000000  -0.0000000  -0.0000000  -0.0000000  -0.0000000  -0.0000000
 NQMom=    0.0000000   0.0000000   0.0000000   0.0000000   0.0000000   2.0440000   2.0440000   0.0000000   0.0000000   0.0000000
 NMagM=    0.0000000   0.0000000   0.0000000   0.0000000   0.0000000   0.4037610   0.4037610   0.0000000   2.7928460   2.7928460
 AtZNuc=   6.0000000   6.0000000   6.0000000   6.0000000   6.0000000   7.0000000   7.0000000  16.0000000   1.0000000   1.0000000

  Atom        71          72          73          74          75          76          77          78          79          80
 IAtWgt=          12          12          12          12          12          32          12          12          12          12
 AtmWgt=  12.0000000  12.0000000  12.0000000  12.0000000  12.0000000  31.9720718  12.0000000  12.0000000  12.0000000  12.0000000
 NucSpn=           0           0           0           0           0           0           0           0           0           0
 AtZEff=  -0.0000000  -0.0000000  -0.0000000  -0.0000000  -0.0000000  -0.0000000  -0.0000000  -0.0000000  -0.0000000  -0.0000000
 NQMom=    0.0000000   0.0000000   0.0000000   0.0000000   0.0000000   0.0000000   0.0000000   0.0000000   0.0000000   0.0000000
 NMagM=    0.0000000   0.0000000   0.0000000   0.0000000   0.0000000   0.0000000   0.0000000   0.0000000   0.0000000   0.0000000
 AtZNuc=   6.0000000   6.0000000   6.0000000   6.0000000   6.0000000  16.0000000   6.0000000   6.0000000   6.0000000   6.0000000

  Atom        81          82          83          84          85          86          87          88          89          90
 IAtWgt=          12          12          12          12          12          12          12          12          12          12
 AtmWgt=  12.0000000  12.0000000  12.0000000  12.0000000  12.0000000  12.0000000  12.0000000  12.0000000  12.0000000  12.0000000
 NucSpn=           0           0           0           0           0           0           0           0           0           0
 AtZEff=  -0.0000000  -0.0000000  -0.0000000  -0.0000000  -0.0000000  -0.0000000  -0.0000000  -0.0000000  -0.0000000  -0.0000000
 NQMom=    0.0000000   0.0000000   0.0000000   0.0000000   0.0000000   0.0000000   0.0000000   0.0000000   0.0000000   0.0000000
 NMagM=    0.0000000   0.0000000   0.0000000   0.0000000   0.0000000   0.0000000   0.0000000   0.0000000   0.0000000   0.0000000
 AtZNuc=   6.0000000   6.0000000   6.0000000   6.0000000   6.0000000   6.0000000   6.0000000   6.0000000   6.0000000   6.0000000

  Atom        91          92          93          94          95          96          97          98          99         100
 IAtWgt=          12          12          12          12          12          12          12          12          12          12
 AtmWgt=  12.0000000  12.0000000  12.0000000  12.0000000  12.0000000  12.0000000  12.0000000  12.0000000  12.0000000  12.0000000
 NucSpn=           0           0           0           0           0           0           0           0           0           0
 AtZEff=  -0.0000000  -0.0000000  -0.0000000  -0.0000000  -0.0000000  -0.0000000  -0.0000000  -0.0000000  -0.0000000  -0.0000000
 NQMom=    0.0000000   0.0000000   0.0000000   0.0000000   0.0000000   0.0000000   0.0000000   0.0000000   0.0000000   0.0000000
 NMagM=    0.0000000   0.0000000   0.0000000   0.0000000   0.0000000   0.0000000   0.0000000   0.0000000   0.0000000   0.0000000
 AtZNuc=   6.0000000   6.0000000   6.0000000   6.0000000   6.0000000   6.0000000   6.0000000   6.0000000   6.0000000   6.0000000

  Atom       101         102         103         104         105         106         107         108         109         110
 IAtWgt=           1           1           1           1           1           1           1           1           1           1
 AtmWgt=   1.0078250   1.0078250   1.0078250   1.0078250   1.0078250   1.0078250   1.0078250   1.0078250   1.0078250   1.0078250
 NucSpn=           1           1           1           1           1           1           1           1           1           1
 AtZEff=  -0.0000000  -0.0000000  -0.0000000  -0.0000000  -0.0000000  -0.0000000  -0.0000000  -0.0000000  -0.0000000  -0.0000000
 NQMom=    0.0000000   0.0000000   0.0000000   0.0000000   0.0000000   0.0000000   0.0000000   0.0000000   0.0000000   0.0000000
 NMagM=    2.7928460   2.7928460   2.7928460   2.7928460   2.7928460   2.7928460   2.7928460   2.7928460   2.7928460   2.7928460
 AtZNuc=   1.0000000   1.0000000   1.0000000   1.0000000   1.0000000   1.0000000   1.0000000   1.0000000   1.0000000   1.0000000

  Atom       111         112         113         114         115         116         117         118         119         120
 IAtWgt=           1           1           1           1           1           1           1           1           1           1
 AtmWgt=   1.0078250   1.0078250   1.0078250   1.0078250   1.0078250   1.0078250   1.0078250   1.0078250   1.0078250   1.0078250
 NucSpn=           1           1           1           1           1           1           1           1           1           1
 AtZEff=  -0.0000000  -0.0000000  -0.0000000  -0.0000000  -0.0000000  -0.0000000  -0.0000000  -0.0000000  -0.0000000  -0.0000000
 NQMom=    0.0000000   0.0000000   0.0000000   0.0000000   0.0000000   0.0000000   0.0000000   0.0000000   0.0000000   0.0000000
 NMagM=    2.7928460   2.7928460   2.7928460   2.7928460   2.7928460   2.7928460   2.7928460   2.7928460   2.7928460   2.7928460
 AtZNuc=   1.0000000   1.0000000   1.0000000   1.0000000   1.0000000   1.0000000   1.0000000   1.0000000   1.0000000   1.0000000

  Atom       121         122         123         124
 IAtWgt=          32          12          12           1
 AtmWgt=  31.9720718  12.0000000  12.0000000   1.0078250
 NucSpn=           0           0           0           1
 AtZEff=  -0.0000000  -0.0000000  -0.0000000  -0.0000000
 NQMom=    0.0000000   0.0000000   0.0000000   0.0000000
 NMagM=    0.0000000   0.0000000   0.0000000   2.7928460
 AtZNuc=  16.0000000   6.0000000   6.0000000   1.0000000
 Leave Link  101 at Tue Oct 10 20:52:00 2023, MaxMem=  1207959552 cpu:               5.8 elap:               0.6
 (Enter /opt/apps/chemistry/Gaussian/g16/l103.exe)

 GradGradGradGradGradGradGradGradGradGradGradGradGradGradGradGradGradGrad
 Berny optimization.
 Initialization pass.
                           ----------------------------
                           !    Initial Parameters    !
                           ! (Angstroms and Degrees)  !
 --------------------------                            --------------------------
 ! Name  Definition              Value          Derivative Info.                !
 --------------------------------------------------------------------------------
 ! R1    R(1,2)                  1.4254         estimate D2E/DX2                !
 ! R2    R(1,3)                  1.3707         estimate D2E/DX2                !
 ! R3    R(1,62)                 1.5            estimate D2E/DX2                !
 ! R4    R(2,4)                  1.3396         estimate D2E/DX2                !
 ! R5    R(2,10)                 1.4515         estimate D2E/DX2                !
 ! R6    R(3,8)                  1.0864         estimate D2E/DX2                !
 ! R7    R(3,9)                  1.4334         estimate D2E/DX2                !
 ! R8    R(4,6)                  1.6452         estimate D2E/DX2                !
 ! R9    R(5,6)                  1.6452         estimate D2E/DX2                !
 ! R10   R(5,10)                 1.3395         estimate D2E/DX2                !
 ! R11   R(7,9)                  1.0864         estimate D2E/DX2                !
 ! R12   R(9,11)                 1.3708         estimate D2E/DX2                !
 ! R13   R(10,11)                1.4254         estimate D2E/DX2                !
 ! R14   R(11,12)                1.0848         estimate D2E/DX2                !
 ! R15   R(13,14)                1.3488         estimate D2E/DX2                !
 ! R16   R(13,15)                1.7643         estimate D2E/DX2                !
 ! R17   R(13,73)                1.5            estimate D2E/DX2                !
 ! R18   R(14,33)                1.4429         estimate D2E/DX2                !
 ! R19   R(14,59)                1.0913         estimate D2E/DX2                !
 ! R20   R(15,34)                1.7467         estimate D2E/DX2                !
 ! R21   R(16,17)                1.4042         estimate D2E/DX2                !
 ! R22   R(16,21)                1.3875         estimate D2E/DX2                !
 ! R23   R(16,25)                1.5406         estimate D2E/DX2                !
 ! R24   R(17,18)                1.4107         estimate D2E/DX2                !
 ! R25   R(17,27)                1.4675         estimate D2E/DX2                !
 ! R26   R(18,19)                1.3876         estimate D2E/DX2                !
 ! R27   R(18,41)                1.0814         estimate D2E/DX2                !
 ! R28   R(19,20)                1.4042         estimate D2E/DX2                !
 ! R29   R(19,22)                1.5407         estimate D2E/DX2                !
 ! R30   R(20,21)                1.4107         estimate D2E/DX2                !
 ! R31   R(20,24)                1.4676         estimate D2E/DX2                !
 ! R32   R(21,40)                1.0814         estimate D2E/DX2                !
 ! R33   R(22,23)                1.5186         estimate D2E/DX2                !
 ! R34   R(22,36)                1.5488         estimate D2E/DX2                !
 ! R35   R(22,37)                1.5398         estimate D2E/DX2                !
 ! R36   R(23,24)                1.4255         estimate D2E/DX2                !
 ! R37   R(23,28)                1.3878         estimate D2E/DX2                !
 ! R38   R(24,31)                1.381          estimate D2E/DX2                !
 ! R39   R(25,26)                1.5186         estimate D2E/DX2                !
 ! R40   R(25,38)                1.5399         estimate D2E/DX2                !
 ! R41   R(25,39)                1.5488         estimate D2E/DX2                !
 ! R42   R(26,27)                1.4255         estimate D2E/DX2                !
 ! R43   R(26,32)                1.3878         estimate D2E/DX2                !
 ! R44   R(27,35)                1.3811         estimate D2E/DX2                !
 ! R45   R(28,29)                1.4007         estimate D2E/DX2                !
 ! R46   R(28,44)                1.0913         estimate D2E/DX2                !
 ! R47   R(29,30)                1.4254         estimate D2E/DX2                !
 ! R48   R(29,61)                1.443          estimate D2E/DX2                !
 ! R49   R(30,31)                1.4047         estimate D2E/DX2                !
 ! R50   R(30,60)                1.7468         estimate D2E/DX2                !
 ! R51   R(31,45)                1.0899         estimate D2E/DX2                !
 ! R52   R(32,33)                1.4007         estimate D2E/DX2                !
 ! R53   R(32,42)                1.0913         estimate D2E/DX2                !
 ! R54   R(33,34)                1.4253         estimate D2E/DX2                !
 ! R55   R(34,35)                1.4047         estimate D2E/DX2                !
 ! R56   R(35,43)                1.0898         estimate D2E/DX2                !
 ! R57   R(36,46)                1.0901         estimate D2E/DX2                !
 ! R58   R(36,47)                1.1039         estimate D2E/DX2                !
 ! R59   R(36,48)                1.0908         estimate D2E/DX2                !
 ! R60   R(37,49)                1.0972         estimate D2E/DX2                !
 ! R61   R(37,50)                1.1054         estimate D2E/DX2                !
 ! R62   R(37,51)                1.0881         estimate D2E/DX2                !
 ! R63   R(38,55)                1.088          estimate D2E/DX2                !
 ! R64   R(38,56)                1.1054         estimate D2E/DX2                !
 ! R65   R(38,57)                1.0972         estimate D2E/DX2                !
 ! R66   R(39,52)                1.09           estimate D2E/DX2                !
 ! R67   R(39,53)                1.0909         estimate D2E/DX2                !
 ! R68   R(39,54)                1.1038         estimate D2E/DX2                !
 ! R69   R(58,61)                1.0913         estimate D2E/DX2                !
 ! R70   R(60,62)                1.7643         estimate D2E/DX2                !
 ! R71   R(61,62)                1.3488         estimate D2E/DX2                !
 ! R72   R(63,64)                1.4262         estimate D2E/DX2                !
 ! R73   R(63,65)                1.37           estimate D2E/DX2                !
 ! R74   R(63,123)               1.5            estimate D2E/DX2                !
 ! R75   R(64,66)                1.339          estimate D2E/DX2                !
 ! R76   R(64,72)                1.4515         estimate D2E/DX2                !
 ! R77   R(65,70)                1.087          estimate D2E/DX2                !
 ! R78   R(65,71)                1.4334         estimate D2E/DX2                !
 ! R79   R(66,68)                1.6462         estimate D2E/DX2                !
 ! R80   R(67,68)                1.6442         estimate D2E/DX2                !
 ! R81   R(67,72)                1.3402         estimate D2E/DX2                !
 ! R82   R(69,71)                1.0859         estimate D2E/DX2                !
 ! R83   R(71,73)                1.3715         estimate D2E/DX2                !
 ! R84   R(72,73)                1.4247         estimate D2E/DX2                !
 ! R85   R(74,75)                1.3488         estimate D2E/DX2                !
 ! R86   R(74,76)                1.7643         estimate D2E/DX2                !
 ! R87   R(74,124)               1.0806         estimate D2E/DX2                !
 ! R88   R(75,94)                1.4429         estimate D2E/DX2                !
 ! R89   R(75,120)               1.0913         estimate D2E/DX2                !
 ! R90   R(76,95)                1.7467         estimate D2E/DX2                !
 ! R91   R(77,78)                1.4042         estimate D2E/DX2                !
 ! R92   R(77,82)                1.3875         estimate D2E/DX2                !
 ! R93   R(77,86)                1.5406         estimate D2E/DX2                !
 ! R94   R(78,79)                1.4107         estimate D2E/DX2                !
 ! R95   R(78,88)                1.4675         estimate D2E/DX2                !
 ! R96   R(79,80)                1.3876         estimate D2E/DX2                !
 ! R97   R(79,102)               1.0814         estimate D2E/DX2                !
 ! R98   R(80,81)                1.4042         estimate D2E/DX2                !
 ! R99   R(80,83)                1.5407         estimate D2E/DX2                !
 ! R100  R(81,82)                1.4107         estimate D2E/DX2                !
 ! R101  R(81,85)                1.4676         estimate D2E/DX2                !
 ! R102  R(82,101)               1.0814         estimate D2E/DX2                !
 ! R103  R(83,84)                1.5186         estimate D2E/DX2                !
 ! R104  R(83,97)                1.5488         estimate D2E/DX2                !
 ! R105  R(83,98)                1.5398         estimate D2E/DX2                !
 ! R106  R(84,85)                1.4255         estimate D2E/DX2                !
 ! R107  R(84,89)                1.3878         estimate D2E/DX2                !
 ! R108  R(85,92)                1.381          estimate D2E/DX2                !
 ! R109  R(86,87)                1.5186         estimate D2E/DX2                !
 ! R110  R(86,99)                1.5399         estimate D2E/DX2                !
 ! R111  R(86,100)               1.5488         estimate D2E/DX2                !
 ! R112  R(87,88)                1.4255         estimate D2E/DX2                !
 ! R113  R(87,93)                1.3878         estimate D2E/DX2                !
 ! R114  R(88,96)                1.3811         estimate D2E/DX2                !
 ! R115  R(89,90)                1.4007         estimate D2E/DX2                !
 ! R116  R(89,105)               1.0913         estimate D2E/DX2                !
 ! R117  R(90,91)                1.4254         estimate D2E/DX2                !
 ! R118  R(90,122)               1.443          estimate D2E/DX2                !
 ! R119  R(91,92)                1.4047         estimate D2E/DX2                !
 ! R120  R(91,121)               1.7468         estimate D2E/DX2                !
 ! R121  R(92,106)               1.0898         estimate D2E/DX2                !
 ! R122  R(93,94)                1.4007         estimate D2E/DX2                !
 ! R123  R(93,103)               1.0913         estimate D2E/DX2                !
 ! R124  R(94,95)                1.4253         estimate D2E/DX2                !
 ! R125  R(95,96)                1.4047         estimate D2E/DX2                !
 ! R126  R(96,104)               1.0898         estimate D2E/DX2                !
 ! R127  R(97,107)               1.0901         estimate D2E/DX2                !
 ! R128  R(97,108)               1.1039         estimate D2E/DX2                !
 ! R129  R(97,109)               1.0908         estimate D2E/DX2                !
 ! R130  R(98,110)               1.0972         estimate D2E/DX2                !
 ! R131  R(98,111)               1.1054         estimate D2E/DX2                !
 ! R132  R(98,112)               1.0881         estimate D2E/DX2                !
 ! R133  R(99,116)               1.088          estimate D2E/DX2                !
 ! R134  R(99,117)               1.1054         estimate D2E/DX2                !
 ! R135  R(99,118)               1.0972         estimate D2E/DX2                !
 ! R136  R(100,113)              1.09           estimate D2E/DX2                !
 ! R137  R(100,114)              1.0909         estimate D2E/DX2                !
 ! R138  R(100,115)              1.1038         estimate D2E/DX2                !
 ! R139  R(119,122)              1.0913         estimate D2E/DX2                !
 ! R140  R(121,123)              1.7643         estimate D2E/DX2                !
 ! R141  R(122,123)              1.3488         estimate D2E/DX2                !
 ! A1    A(2,1,3)              118.094          estimate D2E/DX2                !
 ! A2    A(2,1,62)             121.6261         estimate D2E/DX2                !
 ! A3    A(3,1,62)             116.8402         estimate D2E/DX2                !
 ! A4    A(1,2,4)              126.2504         estimate D2E/DX2                !
 ! A5    A(1,2,10)             120.0658         estimate D2E/DX2                !
 ! A6    A(4,2,10)             113.6838         estimate D2E/DX2                !
 ! A7    A(1,3,8)              119.6368         estimate D2E/DX2                !
 ! A8    A(1,3,9)              121.8405         estimate D2E/DX2                !
 ! A9    A(8,3,9)              118.5227         estimate D2E/DX2                !
 ! A10   A(2,4,6)              106.1244         estimate D2E/DX2                !
 ! A11   A(6,5,10)             106.1244         estimate D2E/DX2                !
 ! A12   A(4,6,5)              100.3833         estimate D2E/DX2                !
 ! A13   A(3,9,7)              118.5234         estimate D2E/DX2                !
 ! A14   A(3,9,11)             121.8399         estimate D2E/DX2                !
 ! A15   A(7,9,11)             119.6366         estimate D2E/DX2                !
 ! A16   A(2,10,5)             113.6842         estimate D2E/DX2                !
 ! A17   A(2,10,11)            120.0656         estimate D2E/DX2                !
 ! A18   A(5,10,11)            126.2502         estimate D2E/DX2                !
 ! A19   A(9,11,10)            118.0942         estimate D2E/DX2                !
 ! A20   A(9,11,12)            122.2867         estimate D2E/DX2                !
 ! A21   A(10,11,12)           119.6191         estimate D2E/DX2                !
 ! A22   A(14,13,15)           113.1121         estimate D2E/DX2                !
 ! A23   A(14,13,73)           113.7436         estimate D2E/DX2                !
 ! A24   A(15,13,73)           132.9686         estimate D2E/DX2                !
 ! A25   A(13,14,33)           112.5514         estimate D2E/DX2                !
 ! A26   A(13,14,59)           123.3527         estimate D2E/DX2                !
 ! A27   A(33,14,59)           124.0959         estimate D2E/DX2                !
 ! A28   A(13,15,34)            91.2882         estimate D2E/DX2                !
 ! A29   A(17,16,21)           120.0117         estimate D2E/DX2                !
 ! A30   A(17,16,25)           111.2251         estimate D2E/DX2                !
 ! A31   A(21,16,25)           128.7631         estimate D2E/DX2                !
 ! A32   A(16,17,18)           121.1249         estimate D2E/DX2                !
 ! A33   A(16,17,27)           107.8786         estimate D2E/DX2                !
 ! A34   A(18,17,27)           130.9964         estimate D2E/DX2                !
 ! A35   A(17,18,19)           118.863          estimate D2E/DX2                !
 ! A36   A(17,18,41)           120.8219         estimate D2E/DX2                !
 ! A37   A(19,18,41)           120.315          estimate D2E/DX2                !
 ! A38   A(18,19,20)           120.0112         estimate D2E/DX2                !
 ! A39   A(18,19,22)           128.7654         estimate D2E/DX2                !
 ! A40   A(20,19,22)           111.2234         estimate D2E/DX2                !
 ! A41   A(19,20,21)           121.1262         estimate D2E/DX2                !
 ! A42   A(19,20,24)           107.8806         estimate D2E/DX2                !
 ! A43   A(21,20,24)           130.9932         estimate D2E/DX2                !
 ! A44   A(16,21,20)           118.8629         estimate D2E/DX2                !
 ! A45   A(16,21,40)           120.3139         estimate D2E/DX2                !
 ! A46   A(20,21,40)           120.8232         estimate D2E/DX2                !
 ! A47   A(19,22,23)           101.5507         estimate D2E/DX2                !
 ! A48   A(19,22,36)           109.5811         estimate D2E/DX2                !
 ! A49   A(19,22,37)           113.429          estimate D2E/DX2                !
 ! A50   A(23,22,36)           113.2326         estimate D2E/DX2                !
 ! A51   A(23,22,37)           108.8643         estimate D2E/DX2                !
 ! A52   A(36,22,37)           110.0126         estimate D2E/DX2                !
 ! A53   A(22,23,24)           110.0386         estimate D2E/DX2                !
 ! A54   A(22,23,28)           128.2788         estimate D2E/DX2                !
 ! A55   A(24,23,28)           121.6826         estimate D2E/DX2                !
 ! A56   A(20,24,23)           109.3067         estimate D2E/DX2                !
 ! A57   A(20,24,31)           129.8454         estimate D2E/DX2                !
 ! A58   A(23,24,31)           120.8479         estimate D2E/DX2                !
 ! A59   A(16,25,26)           101.5505         estimate D2E/DX2                !
 ! A60   A(16,25,38)           113.404          estimate D2E/DX2                !
 ! A61   A(16,25,39)           109.6075         estimate D2E/DX2                !
 ! A62   A(26,25,38)           108.8359         estimate D2E/DX2                !
 ! A63   A(26,25,39)           113.2602         estimate D2E/DX2                !
 ! A64   A(38,25,39)           110.012          estimate D2E/DX2                !
 ! A65   A(25,26,27)           110.039          estimate D2E/DX2                !
 ! A66   A(25,26,32)           128.2776         estimate D2E/DX2                !
 ! A67   A(27,26,32)           121.6834         estimate D2E/DX2                !
 ! A68   A(17,27,26)           109.3068         estimate D2E/DX2                !
 ! A69   A(17,27,35)           129.8481         estimate D2E/DX2                !
 ! A70   A(26,27,35)           120.8451         estimate D2E/DX2                !
 ! A71   A(23,28,29)           118.7038         estimate D2E/DX2                !
 ! A72   A(23,28,44)           122.0912         estimate D2E/DX2                !
 ! A73   A(29,28,44)           119.205          estimate D2E/DX2                !
 ! A74   A(28,29,30)           118.7192         estimate D2E/DX2                !
 ! A75   A(28,29,61)           128.613          estimate D2E/DX2                !
 ! A76   A(30,29,61)           112.6678         estimate D2E/DX2                !
 ! A77   A(29,30,31)           122.9302         estimate D2E/DX2                !
 ! A78   A(29,30,60)           110.3802         estimate D2E/DX2                !
 ! A79   A(31,30,60)           126.6896         estimate D2E/DX2                !
 ! A80   A(24,31,30)           117.1163         estimate D2E/DX2                !
 ! A81   A(24,31,45)           121.049          estimate D2E/DX2                !
 ! A82   A(30,31,45)           121.8347         estimate D2E/DX2                !
 ! A83   A(26,32,33)           118.7044         estimate D2E/DX2                !
 ! A84   A(26,32,42)           122.0907         estimate D2E/DX2                !
 ! A85   A(33,32,42)           119.2049         estimate D2E/DX2                !
 ! A86   A(14,33,32)           128.6141         estimate D2E/DX2                !
 ! A87   A(14,33,34)           112.6658         estimate D2E/DX2                !
 ! A88   A(32,33,34)           118.7201         estimate D2E/DX2                !
 ! A89   A(15,34,33)           110.3825         estimate D2E/DX2                !
 ! A90   A(15,34,35)           126.6894         estimate D2E/DX2                !
 ! A91   A(33,34,35)           122.9281         estimate D2E/DX2                !
 ! A92   A(27,35,34)           117.1189         estimate D2E/DX2                !
 ! A93   A(27,35,43)           121.0492         estimate D2E/DX2                !
 ! A94   A(34,35,43)           121.8319         estimate D2E/DX2                !
 ! A95   A(22,36,46)           112.6351         estimate D2E/DX2                !
 ! A96   A(22,36,47)           108.9249         estimate D2E/DX2                !
 ! A97   A(22,36,48)           111.2044         estimate D2E/DX2                !
 ! A98   A(46,36,47)           108.0228         estimate D2E/DX2                !
 ! A99   A(46,36,48)           105.567          estimate D2E/DX2                !
 ! A100  A(47,36,48)           110.4129         estimate D2E/DX2                !
 ! A101  A(22,37,49)           111.1905         estimate D2E/DX2                !
 ! A102  A(22,37,50)           112.8897         estimate D2E/DX2                !
 ! A103  A(22,37,51)           108.1222         estimate D2E/DX2                !
 ! A104  A(49,37,50)           106.3994         estimate D2E/DX2                !
 ! A105  A(49,37,51)           110.1491         estimate D2E/DX2                !
 ! A106  A(50,37,51)           108.0412         estimate D2E/DX2                !
 ! A107  A(25,38,55)           108.124          estimate D2E/DX2                !
 ! A108  A(25,38,56)           112.8947         estimate D2E/DX2                !
 ! A109  A(25,38,57)           111.1942         estimate D2E/DX2                !
 ! A110  A(55,38,56)           108.0419         estimate D2E/DX2                !
 ! A111  A(55,38,57)           110.1441         estimate D2E/DX2                !
 ! A112  A(56,38,57)           106.3926         estimate D2E/DX2                !
 ! A113  A(25,39,52)           112.6294         estimate D2E/DX2                !
 ! A114  A(25,39,53)           111.2042         estimate D2E/DX2                !
 ! A115  A(25,39,54)           108.9195         estimate D2E/DX2                !
 ! A116  A(52,39,53)           105.572          estimate D2E/DX2                !
 ! A117  A(52,39,54)           108.0208         estimate D2E/DX2                !
 ! A118  A(53,39,54)           110.4216         estimate D2E/DX2                !
 ! A119  A(30,60,62)            91.2889         estimate D2E/DX2                !
 ! A120  A(29,61,58)           124.0975         estimate D2E/DX2                !
 ! A121  A(29,61,62)           112.5504         estimate D2E/DX2                !
 ! A122  A(58,61,62)           123.3521         estimate D2E/DX2                !
 ! A123  A(1,62,60)            127.3995         estimate D2E/DX2                !
 ! A124  A(1,62,61)            116.7186         estimate D2E/DX2                !
 ! A125  A(60,62,61)           113.1127         estimate D2E/DX2                !
 ! A126  A(64,63,65)           118.0921         estimate D2E/DX2                !
 ! A127  A(64,63,123)          119.5349         estimate D2E/DX2                !
 ! A128  A(65,63,123)          122.373          estimate D2E/DX2                !
 ! A129  A(63,64,66)           126.2567         estimate D2E/DX2                !
 ! A130  A(63,64,72)           120.1183         estimate D2E/DX2                !
 ! A131  A(66,64,72)           113.625          estimate D2E/DX2                !
 ! A132  A(63,65,70)           119.6333         estimate D2E/DX2                !
 ! A133  A(63,65,71)           121.7898         estimate D2E/DX2                !
 ! A134  A(70,65,71)           118.5768         estimate D2E/DX2                !
 ! A135  A(64,66,68)           106.1544         estimate D2E/DX2                !
 ! A136  A(68,67,72)           106.0943         estimate D2E/DX2                !
 ! A137  A(66,68,67)           100.3833         estimate D2E/DX2                !
 ! A138  A(65,71,69)           118.4693         estimate D2E/DX2                !
 ! A139  A(65,71,73)           121.8906         estimate D2E/DX2                !
 ! A140  A(69,71,73)           119.6402         estimate D2E/DX2                !
 ! A141  A(64,72,67)           113.743          estimate D2E/DX2                !
 ! A142  A(64,72,73)           120.0131         estimate D2E/DX2                !
 ! A143  A(67,72,73)           126.244          estimate D2E/DX2                !
 ! A144  A(13,73,71)           120.4432         estimate D2E/DX2                !
 ! A145  A(13,73,72)           121.3791         estimate D2E/DX2                !
 ! A146  A(71,73,72)           118.0961         estimate D2E/DX2                !
 ! A147  A(75,74,76)           113.1121         estimate D2E/DX2                !
 ! A148  A(75,74,124)          127.0924         estimate D2E/DX2                !
 ! A149  A(76,74,124)          119.7955         estimate D2E/DX2                !
 ! A150  A(74,75,94)           112.5514         estimate D2E/DX2                !
 ! A151  A(74,75,120)          123.3527         estimate D2E/DX2                !
 ! A152  A(94,75,120)          124.0959         estimate D2E/DX2                !
 ! A153  A(74,76,95)            91.2882         estimate D2E/DX2                !
 ! A154  A(78,77,82)           120.0117         estimate D2E/DX2                !
 ! A155  A(78,77,86)           111.2251         estimate D2E/DX2                !
 ! A156  A(82,77,86)           128.7631         estimate D2E/DX2                !
 ! A157  A(77,78,79)           121.1249         estimate D2E/DX2                !
 ! A158  A(77,78,88)           107.8786         estimate D2E/DX2                !
 ! A159  A(79,78,88)           130.9964         estimate D2E/DX2                !
 ! A160  A(78,79,80)           118.8631         estimate D2E/DX2                !
 ! A161  A(78,79,102)          120.8219         estimate D2E/DX2                !
 ! A162  A(80,79,102)          120.315          estimate D2E/DX2                !
 ! A163  A(79,80,81)           120.0112         estimate D2E/DX2                !
 ! A164  A(79,80,83)           128.7654         estimate D2E/DX2                !
 ! A165  A(81,80,83)           111.2234         estimate D2E/DX2                !
 ! A166  A(80,81,82)           121.1262         estimate D2E/DX2                !
 ! A167  A(80,81,85)           107.8806         estimate D2E/DX2                !
 ! A168  A(82,81,85)           130.9932         estimate D2E/DX2                !
 ! A169  A(77,82,81)           118.8629         estimate D2E/DX2                !
 ! A170  A(77,82,101)          120.3139         estimate D2E/DX2                !
 ! A171  A(81,82,101)          120.8232         estimate D2E/DX2                !
 ! A172  A(80,83,84)           101.5507         estimate D2E/DX2                !
 ! A173  A(80,83,97)           109.581          estimate D2E/DX2                !
 ! A174  A(80,83,98)           113.429          estimate D2E/DX2                !
 ! A175  A(84,83,97)           113.2326         estimate D2E/DX2                !
 ! A176  A(84,83,98)           108.8643         estimate D2E/DX2                !
 ! A177  A(97,83,98)           110.0126         estimate D2E/DX2                !
 ! A178  A(83,84,85)           110.0386         estimate D2E/DX2                !
 ! A179  A(83,84,89)           128.2788         estimate D2E/DX2                !
 ! A180  A(85,84,89)           121.6826         estimate D2E/DX2                !
 ! A181  A(81,85,84)           109.3067         estimate D2E/DX2                !
 ! A182  A(81,85,92)           129.8454         estimate D2E/DX2                !
 ! A183  A(84,85,92)           120.8479         estimate D2E/DX2                !
 ! A184  A(77,86,87)           101.5505         estimate D2E/DX2                !
 ! A185  A(77,86,99)           113.404          estimate D2E/DX2                !
 ! A186  A(77,86,100)          109.6075         estimate D2E/DX2                !
 ! A187  A(87,86,99)           108.8359         estimate D2E/DX2                !
 ! A188  A(87,86,100)          113.2602         estimate D2E/DX2                !
 ! A189  A(99,86,100)          110.012          estimate D2E/DX2                !
 ! A190  A(86,87,88)           110.039          estimate D2E/DX2                !
 ! A191  A(86,87,93)           128.2776         estimate D2E/DX2                !
 ! A192  A(88,87,93)           121.6834         estimate D2E/DX2                !
 ! A193  A(78,88,87)           109.3068         estimate D2E/DX2                !
 ! A194  A(78,88,96)           129.8481         estimate D2E/DX2                !
 ! A195  A(87,88,96)           120.8451         estimate D2E/DX2                !
 ! A196  A(84,89,90)           118.7038         estimate D2E/DX2                !
 ! A197  A(84,89,105)          122.0912         estimate D2E/DX2                !
 ! A198  A(90,89,105)          119.205          estimate D2E/DX2                !
 ! A199  A(89,90,91)           118.7192         estimate D2E/DX2                !
 ! A200  A(89,90,122)          128.613          estimate D2E/DX2                !
 ! A201  A(91,90,122)          112.6678         estimate D2E/DX2                !
 ! A202  A(90,91,92)           122.9302         estimate D2E/DX2                !
 ! A203  A(90,91,121)          110.3802         estimate D2E/DX2                !
 ! A204  A(92,91,121)          126.6896         estimate D2E/DX2                !
 ! A205  A(85,92,91)           117.1163         estimate D2E/DX2                !
 ! A206  A(85,92,106)          121.049          estimate D2E/DX2                !
 ! A207  A(91,92,106)          121.8347         estimate D2E/DX2                !
 ! A208  A(87,93,94)           118.7044         estimate D2E/DX2                !
 ! A209  A(87,93,103)          122.0907         estimate D2E/DX2                !
 ! A210  A(94,93,103)          119.2049         estimate D2E/DX2                !
 ! A211  A(75,94,93)           128.6141         estimate D2E/DX2                !
 ! A212  A(75,94,95)           112.6658         estimate D2E/DX2                !
 ! A213  A(93,94,95)           118.7201         estimate D2E/DX2                !
 ! A214  A(76,95,94)           110.3825         estimate D2E/DX2                !
 ! A215  A(76,95,96)           126.6894         estimate D2E/DX2                !
 ! A216  A(94,95,96)           122.9281         estimate D2E/DX2                !
 ! A217  A(88,96,95)           117.1189         estimate D2E/DX2                !
 ! A218  A(88,96,104)          121.0492         estimate D2E/DX2                !
 ! A219  A(95,96,104)          121.8319         estimate D2E/DX2                !
 ! A220  A(83,97,107)          112.6351         estimate D2E/DX2                !
 ! A221  A(83,97,108)          108.9249         estimate D2E/DX2                !
 ! A222  A(83,97,109)          111.2044         estimate D2E/DX2                !
 ! A223  A(107,97,108)         108.0228         estimate D2E/DX2                !
 ! A224  A(107,97,109)         105.567          estimate D2E/DX2                !
 ! A225  A(108,97,109)         110.4129         estimate D2E/DX2                !
 ! A226  A(83,98,110)          111.1905         estimate D2E/DX2                !
 ! A227  A(83,98,111)          112.8897         estimate D2E/DX2                !
 ! A228  A(83,98,112)          108.1222         estimate D2E/DX2                !
 ! A229  A(110,98,111)         106.3994         estimate D2E/DX2                !
 ! A230  A(110,98,112)         110.1491         estimate D2E/DX2                !
 ! A231  A(111,98,112)         108.0412         estimate D2E/DX2                !
 ! A232  A(86,99,116)          108.124          estimate D2E/DX2                !
 ! A233  A(86,99,117)          112.8947         estimate D2E/DX2                !
 ! A234  A(86,99,118)          111.1942         estimate D2E/DX2                !
 ! A235  A(116,99,117)         108.0419         estimate D2E/DX2                !
 ! A236  A(116,99,118)         110.1441         estimate D2E/DX2                !
 ! A237  A(117,99,118)         106.3927         estimate D2E/DX2                !
 ! A238  A(86,100,113)         112.6294         estimate D2E/DX2                !
 ! A239  A(86,100,114)         111.2042         estimate D2E/DX2                !
 ! A240  A(86,100,115)         108.9195         estimate D2E/DX2                !
 ! A241  A(113,100,114)        105.572          estimate D2E/DX2                !
 ! A242  A(113,100,115)        108.0208         estimate D2E/DX2                !
 ! A243  A(114,100,115)        110.4216         estimate D2E/DX2                !
 ! A244  A(91,121,123)          91.2889         estimate D2E/DX2                !
 ! A245  A(90,122,119)         124.0974         estimate D2E/DX2                !
 ! A246  A(90,122,123)         112.5504         estimate D2E/DX2                !
 ! A247  A(119,122,123)        123.3522         estimate D2E/DX2                !
 ! A248  A(63,123,121)         122.9875         estimate D2E/DX2                !
 ! A249  A(63,123,122)         123.893          estimate D2E/DX2                !
 ! A250  A(121,123,122)        113.1127         estimate D2E/DX2                !
 ! D1    D(3,1,2,4)           -180.0            estimate D2E/DX2                !
 ! D2    D(3,1,2,10)             0.0            estimate D2E/DX2                !
 ! D3    D(62,1,2,4)            21.5941         estimate D2E/DX2                !
 ! D4    D(62,1,2,10)         -158.4059         estimate D2E/DX2                !
 ! D5    D(2,1,3,8)            180.0            estimate D2E/DX2                !
 ! D6    D(2,1,3,9)              0.0            estimate D2E/DX2                !
 ! D7    D(62,1,3,8)           -20.5612         estimate D2E/DX2                !
 ! D8    D(62,1,3,9)           159.4388         estimate D2E/DX2                !
 ! D9    D(2,1,62,60)          -16.9901         estimate D2E/DX2                !
 ! D10   D(2,1,62,61)         -176.7128         estimate D2E/DX2                !
 ! D11   D(3,1,62,60)         -175.6523         estimate D2E/DX2                !
 ! D12   D(3,1,62,61)           24.625          estimate D2E/DX2                !
 ! D13   D(1,2,4,6)           -180.0            estimate D2E/DX2                !
 ! D14   D(10,2,4,6)             0.0            estimate D2E/DX2                !
 ! D15   D(1,2,10,5)           180.0            estimate D2E/DX2                !
 ! D16   D(1,2,10,11)            0.0            estimate D2E/DX2                !
 ! D17   D(4,2,10,5)             0.0            estimate D2E/DX2                !
 ! D18   D(4,2,10,11)         -180.0            estimate D2E/DX2                !
 ! D19   D(1,3,9,7)            180.0            estimate D2E/DX2                !
 ! D20   D(1,3,9,11)             0.0            estimate D2E/DX2                !
 ! D21   D(8,3,9,7)              0.0            estimate D2E/DX2                !
 ! D22   D(8,3,9,11)           180.0            estimate D2E/DX2                !
 ! D23   D(2,4,6,5)              0.0            estimate D2E/DX2                !
 ! D24   D(10,5,6,4)             0.0            estimate D2E/DX2                !
 ! D25   D(6,5,10,2)             0.0            estimate D2E/DX2                !
 ! D26   D(6,5,10,11)          180.0            estimate D2E/DX2                !
 ! D27   D(3,9,11,10)            0.0            estimate D2E/DX2                !
 ! D28   D(3,9,11,12)          180.0            estimate D2E/DX2                !
 ! D29   D(7,9,11,10)         -180.0            estimate D2E/DX2                !
 ! D30   D(7,9,11,12)            0.0            estimate D2E/DX2                !
 ! D31   D(2,10,11,9)            0.0            estimate D2E/DX2                !
 ! D32   D(2,10,11,12)        -180.0            estimate D2E/DX2                !
 ! D33   D(5,10,11,9)         -180.0            estimate D2E/DX2                !
 ! D34   D(5,10,11,12)           0.0            estimate D2E/DX2                !
 ! D35   D(15,13,14,33)          0.0024         estimate D2E/DX2                !
 ! D36   D(15,13,14,59)       -179.9959         estimate D2E/DX2                !
 ! D37   D(73,13,14,33)        175.8216         estimate D2E/DX2                !
 ! D38   D(73,13,14,59)         -4.1767         estimate D2E/DX2                !
 ! D39   D(14,13,15,34)         -0.0111         estimate D2E/DX2                !
 ! D40   D(73,13,15,34)       -174.7785         estimate D2E/DX2                !
 ! D41   D(14,13,73,71)        -28.9258         estimate D2E/DX2                !
 ! D42   D(14,13,73,72)        147.7269         estimate D2E/DX2                !
 ! D43   D(15,13,73,71)        145.8165         estimate D2E/DX2                !
 ! D44   D(15,13,73,72)        -37.5308         estimate D2E/DX2                !
 ! D45   D(13,14,33,32)       -179.9963         estimate D2E/DX2                !
 ! D46   D(13,14,33,34)          0.0105         estimate D2E/DX2                !
 ! D47   D(59,14,33,32)          0.002          estimate D2E/DX2                !
 ! D48   D(59,14,33,34)       -179.9912         estimate D2E/DX2                !
 ! D49   D(13,15,34,33)          0.0165         estimate D2E/DX2                !
 ! D50   D(13,15,34,35)        179.9915         estimate D2E/DX2                !
 ! D51   D(21,16,17,18)          0.0077         estimate D2E/DX2                !
 ! D52   D(21,16,17,27)       -179.9932         estimate D2E/DX2                !
 ! D53   D(25,16,17,18)       -179.9864         estimate D2E/DX2                !
 ! D54   D(25,16,17,27)          0.0127         estimate D2E/DX2                !
 ! D55   D(17,16,21,20)         -0.0098         estimate D2E/DX2                !
 ! D56   D(17,16,21,40)        179.9782         estimate D2E/DX2                !
 ! D57   D(25,16,21,20)        179.9832         estimate D2E/DX2                !
 ! D58   D(25,16,21,40)         -0.0289         estimate D2E/DX2                !
 ! D59   D(17,16,25,26)         -0.0075         estimate D2E/DX2                !
 ! D60   D(17,16,25,38)       -116.5929         estimate D2E/DX2                !
 ! D61   D(17,16,25,39)        120.0378         estimate D2E/DX2                !
 ! D62   D(21,16,25,26)        179.999          estimate D2E/DX2                !
 ! D63   D(21,16,25,38)         63.4137         estimate D2E/DX2                !
 ! D64   D(21,16,25,39)        -59.9557         estimate D2E/DX2                !
 ! D65   D(16,17,18,19)          0.0028         estimate D2E/DX2                !
 ! D66   D(16,17,18,41)       -179.99           estimate D2E/DX2                !
 ! D67   D(27,17,18,19)       -179.9962         estimate D2E/DX2                !
 ! D68   D(27,17,18,41)          0.0111         estimate D2E/DX2                !
 ! D69   D(16,17,27,26)         -0.013          estimate D2E/DX2                !
 ! D70   D(16,17,27,35)        179.985          estimate D2E/DX2                !
 ! D71   D(18,17,27,26)        179.986          estimate D2E/DX2                !
 ! D72   D(18,17,27,35)         -0.016          estimate D2E/DX2                !
 ! D73   D(17,18,19,20)         -0.0107         estimate D2E/DX2                !
 ! D74   D(17,18,19,22)        179.984          estimate D2E/DX2                !
 ! D75   D(41,18,19,20)        179.982          estimate D2E/DX2                !
 ! D76   D(41,18,19,22)         -0.0233         estimate D2E/DX2                !
 ! D77   D(18,19,20,21)          0.0086         estimate D2E/DX2                !
 ! D78   D(18,19,20,24)       -179.9979         estimate D2E/DX2                !
 ! D79   D(22,19,20,21)       -179.9869         estimate D2E/DX2                !
 ! D80   D(22,19,20,24)          0.0066         estimate D2E/DX2                !
 ! D81   D(18,19,22,23)        179.9935         estimate D2E/DX2                !
 ! D82   D(18,19,22,36)         59.9916         estimate D2E/DX2                !
 ! D83   D(18,19,22,37)        -63.3765         estimate D2E/DX2                !
 ! D84   D(20,19,22,23)         -0.0114         estimate D2E/DX2                !
 ! D85   D(20,19,22,36)       -120.0133         estimate D2E/DX2                !
 ! D86   D(20,19,22,37)        116.6186         estimate D2E/DX2                !
 ! D87   D(19,20,21,16)          0.0018         estimate D2E/DX2                !
 ! D88   D(19,20,21,40)       -179.9861         estimate D2E/DX2                !
 ! D89   D(24,20,21,16)       -179.99           estimate D2E/DX2                !
 ! D90   D(24,20,21,40)          0.0221         estimate D2E/DX2                !
 ! D91   D(19,20,24,23)          0.0016         estimate D2E/DX2                !
 ! D92   D(19,20,24,31)        179.984          estimate D2E/DX2                !
 ! D93   D(21,20,24,23)        179.9942         estimate D2E/DX2                !
 ! D94   D(21,20,24,31)         -0.0233         estimate D2E/DX2                !
 ! D95   D(19,22,23,24)          0.0122         estimate D2E/DX2                !
 ! D96   D(19,22,23,28)       -179.9964         estimate D2E/DX2                !
 ! D97   D(36,22,23,24)        117.3983         estimate D2E/DX2                !
 ! D98   D(36,22,23,28)        -62.6102         estimate D2E/DX2                !
 ! D99   D(37,22,23,24)       -119.9017         estimate D2E/DX2                !
 ! D100  D(37,22,23,28)         60.0897         estimate D2E/DX2                !
 ! D101  D(19,22,36,46)        -63.5641         estimate D2E/DX2                !
 ! D102  D(19,22,36,47)        176.6119         estimate D2E/DX2                !
 ! D103  D(19,22,36,48)         54.7072         estimate D2E/DX2                !
 ! D104  D(23,22,36,46)       -176.1443         estimate D2E/DX2                !
 ! D105  D(23,22,36,47)         64.0317         estimate D2E/DX2                !
 ! D106  D(23,22,36,48)        -57.873          estimate D2E/DX2                !
 ! D107  D(37,22,36,46)         61.7947         estimate D2E/DX2                !
 ! D108  D(37,22,36,47)        -58.0293         estimate D2E/DX2                !
 ! D109  D(37,22,36,48)       -179.9339         estimate D2E/DX2                !
 ! D110  D(19,22,37,49)        -56.9047         estimate D2E/DX2                !
 ! D111  D(19,22,37,50)       -176.4012         estimate D2E/DX2                !
 ! D112  D(19,22,37,51)         64.1335         estimate D2E/DX2                !
 ! D113  D(23,22,37,49)         55.3471         estimate D2E/DX2                !
 ! D114  D(23,22,37,50)        -64.1494         estimate D2E/DX2                !
 ! D115  D(23,22,37,51)        176.3852         estimate D2E/DX2                !
 ! D116  D(36,22,37,49)        179.9642         estimate D2E/DX2                !
 ! D117  D(36,22,37,50)         60.4677         estimate D2E/DX2                !
 ! D118  D(36,22,37,51)        -58.9977         estimate D2E/DX2                !
 ! D119  D(22,23,24,20)         -0.0092         estimate D2E/DX2                !
 ! D120  D(22,23,24,31)       -179.9935         estimate D2E/DX2                !
 ! D121  D(28,23,24,20)        179.9987         estimate D2E/DX2                !
 ! D122  D(28,23,24,31)          0.0144         estimate D2E/DX2                !
 ! D123  D(22,23,28,29)       -179.9934         estimate D2E/DX2                !
 ! D124  D(22,23,28,44)         -0.0022         estimate D2E/DX2                !
 ! D125  D(24,23,28,29)         -0.0029         estimate D2E/DX2                !
 ! D126  D(24,23,28,44)        179.9884         estimate D2E/DX2                !
 ! D127  D(20,24,31,30)       -179.9953         estimate D2E/DX2                !
 ! D128  D(20,24,31,45)         -0.0032         estimate D2E/DX2                !
 ! D129  D(23,24,31,30)         -0.0146         estimate D2E/DX2                !
 ! D130  D(23,24,31,45)        179.9775         estimate D2E/DX2                !
 ! D131  D(16,25,26,27)         -0.0007         estimate D2E/DX2                !
 ! D132  D(16,25,26,32)        179.9915         estimate D2E/DX2                !
 ! D133  D(38,25,26,27)        119.8722         estimate D2E/DX2                !
 ! D134  D(38,25,26,32)        -60.1356         estimate D2E/DX2                !
 ! D135  D(39,25,26,27)       -117.4304         estimate D2E/DX2                !
 ! D136  D(39,25,26,32)         62.5618         estimate D2E/DX2                !
 ! D137  D(16,25,38,55)        -64.105          estimate D2E/DX2                !
 ! D138  D(16,25,38,56)        176.4244         estimate D2E/DX2                !
 ! D139  D(16,25,38,57)         56.9305         estimate D2E/DX2                !
 ! D140  D(26,25,38,55)       -176.3256         estimate D2E/DX2                !
 ! D141  D(26,25,38,56)         64.2038         estimate D2E/DX2                !
 ! D142  D(26,25,38,57)        -55.2901         estimate D2E/DX2                !
 ! D143  D(39,25,38,55)         59.0422         estimate D2E/DX2                !
 ! D144  D(39,25,38,56)        -60.4284         estimate D2E/DX2                !
 ! D145  D(39,25,38,57)       -179.9223         estimate D2E/DX2                !
 ! D146  D(16,25,39,52)         63.5905         estimate D2E/DX2                !
 ! D147  D(16,25,39,53)        -54.6833         estimate D2E/DX2                !
 ! D148  D(16,25,39,54)       -176.5952         estimate D2E/DX2                !
 ! D149  D(26,25,39,52)        176.2023         estimate D2E/DX2                !
 ! D150  D(26,25,39,53)         57.9285         estimate D2E/DX2                !
 ! D151  D(26,25,39,54)        -63.9834         estimate D2E/DX2                !
 ! D152  D(38,25,39,52)        -61.7545         estimate D2E/DX2                !
 ! D153  D(38,25,39,53)        179.9716         estimate D2E/DX2                !
 ! D154  D(38,25,39,54)         58.0597         estimate D2E/DX2                !
 ! D155  D(25,26,27,17)          0.0083         estimate D2E/DX2                !
 ! D156  D(25,26,27,35)       -179.9899         estimate D2E/DX2                !
 ! D157  D(32,26,27,17)       -179.9845         estimate D2E/DX2                !
 ! D158  D(32,26,27,35)          0.0173         estimate D2E/DX2                !
 ! D159  D(25,26,32,33)       -179.9977         estimate D2E/DX2                !
 ! D160  D(25,26,32,42)          0.0052         estimate D2E/DX2                !
 ! D161  D(27,26,32,33)         -0.0063         estimate D2E/DX2                !
 ! D162  D(27,26,32,42)        179.9966         estimate D2E/DX2                !
 ! D163  D(17,27,35,34)        179.9892         estimate D2E/DX2                !
 ! D164  D(17,27,35,43)         -0.0166         estimate D2E/DX2                !
 ! D165  D(26,27,35,34)         -0.013          estimate D2E/DX2                !
 ! D166  D(26,27,35,43)        179.9812         estimate D2E/DX2                !
 ! D167  D(23,28,29,30)         -0.0072         estimate D2E/DX2                !
 ! D168  D(23,28,29,61)        179.9847         estimate D2E/DX2                !
 ! D169  D(44,28,29,30)       -179.9988         estimate D2E/DX2                !
 ! D170  D(44,28,29,61)         -0.0068         estimate D2E/DX2                !
 ! D171  D(28,29,30,31)          0.0067         estimate D2E/DX2                !
 ! D172  D(28,29,30,60)        179.9972         estimate D2E/DX2                !
 ! D173  D(61,29,30,31)       -179.9865         estimate D2E/DX2                !
 ! D174  D(61,29,30,60)          0.004          estimate D2E/DX2                !
 ! D175  D(28,29,61,58)          0.0057         estimate D2E/DX2                !
 ! D176  D(28,29,61,62)        179.9913         estimate D2E/DX2                !
 ! D177  D(30,29,61,58)        179.998          estimate D2E/DX2                !
 ! D178  D(30,29,61,62)         -0.0163         estimate D2E/DX2                !
 ! D179  D(29,30,31,24)          0.0043         estimate D2E/DX2                !
 ! D180  D(29,30,31,45)       -179.9877         estimate D2E/DX2                !
 ! D181  D(60,30,31,24)       -179.9845         estimate D2E/DX2                !
 ! D182  D(60,30,31,45)          0.0235         estimate D2E/DX2                !
 ! D183  D(29,30,60,62)          0.0064         estimate D2E/DX2                !
 ! D184  D(31,30,60,62)        179.9964         estimate D2E/DX2                !
 ! D185  D(26,32,33,14)        179.9997         estimate D2E/DX2                !
 ! D186  D(26,32,33,34)         -0.0075         estimate D2E/DX2                !
 ! D187  D(42,32,33,14)         -0.0031         estimate D2E/DX2                !
 ! D188  D(42,32,33,34)        179.9897         estimate D2E/DX2                !
 ! D189  D(14,33,34,15)         -0.0185         estimate D2E/DX2                !
 ! D190  D(14,33,34,35)       -179.9945         estimate D2E/DX2                !
 ! D191  D(32,33,34,15)        179.9876         estimate D2E/DX2                !
 ! D192  D(32,33,34,35)          0.0116         estimate D2E/DX2                !
 ! D193  D(15,34,35,27)       -179.9731         estimate D2E/DX2                !
 ! D194  D(15,34,35,43)          0.0327         estimate D2E/DX2                !
 ! D195  D(33,34,35,27)         -0.0011         estimate D2E/DX2                !
 ! D196  D(33,34,35,43)       -179.9953         estimate D2E/DX2                !
 ! D197  D(30,60,62,1)        -160.3478         estimate D2E/DX2                !
 ! D198  D(30,60,62,61)         -0.0162         estimate D2E/DX2                !
 ! D199  D(29,61,62,1)         162.603          estimate D2E/DX2                !
 ! D200  D(29,61,62,60)          0.0212         estimate D2E/DX2                !
 ! D201  D(58,61,62,1)         -17.4112         estimate D2E/DX2                !
 ! D202  D(58,61,62,60)       -179.993          estimate D2E/DX2                !
 ! D203  D(65,63,64,66)       -180.0            estimate D2E/DX2                !
 ! D204  D(65,63,64,72)          0.0            estimate D2E/DX2                !
 ! D205  D(123,63,64,66)         0.0459         estimate D2E/DX2                !
 ! D206  D(123,63,64,72)      -179.9541         estimate D2E/DX2                !
 ! D207  D(64,63,65,70)        180.0            estimate D2E/DX2                !
 ! D208  D(64,63,65,71)          0.0            estimate D2E/DX2                !
 ! D209  D(123,63,65,70)        -0.0472         estimate D2E/DX2                !
 ! D210  D(123,63,65,71)       179.9528         estimate D2E/DX2                !
 ! D211  D(64,63,123,121)     -147.0289         estimate D2E/DX2                !
 ! D212  D(64,63,123,122)       31.9555         estimate D2E/DX2                !
 ! D213  D(65,63,123,121)       33.019          estimate D2E/DX2                !
 ! D214  D(65,63,123,122)     -147.9966         estimate D2E/DX2                !
 ! D215  D(63,64,66,68)       -180.0            estimate D2E/DX2                !
 ! D216  D(72,64,66,68)          0.0            estimate D2E/DX2                !
 ! D217  D(63,64,72,67)        180.0            estimate D2E/DX2                !
 ! D218  D(63,64,72,73)          0.0            estimate D2E/DX2                !
 ! D219  D(66,64,72,67)          0.0            estimate D2E/DX2                !
 ! D220  D(66,64,72,73)       -180.0            estimate D2E/DX2                !
 ! D221  D(63,65,71,69)       -180.0            estimate D2E/DX2                !
 ! D222  D(63,65,71,73)          0.0            estimate D2E/DX2                !
 ! D223  D(70,65,71,69)          0.0            estimate D2E/DX2                !
 ! D224  D(70,65,71,73)        180.0            estimate D2E/DX2                !
 ! D225  D(64,66,68,67)          0.0            estimate D2E/DX2                !
 ! D226  D(72,67,68,66)          0.0            estimate D2E/DX2                !
 ! D227  D(68,67,72,64)          0.0            estimate D2E/DX2                !
 ! D228  D(68,67,72,73)        180.0            estimate D2E/DX2                !
 ! D229  D(65,71,73,13)        176.7607         estimate D2E/DX2                !
 ! D230  D(65,71,73,72)          0.0            estimate D2E/DX2                !
 ! D231  D(69,71,73,13)         -3.2393         estimate D2E/DX2                !
 ! D232  D(69,71,73,72)        180.0            estimate D2E/DX2                !
 ! D233  D(64,72,73,13)       -176.7288         estimate D2E/DX2                !
 ! D234  D(64,72,73,71)          0.0            estimate D2E/DX2                !
 ! D235  D(67,72,73,13)          3.2712         estimate D2E/DX2                !
 ! D236  D(67,72,73,71)        180.0            estimate D2E/DX2                !
 ! D237  D(76,74,75,94)          0.0024         estimate D2E/DX2                !
 ! D238  D(76,74,75,120)      -179.9959         estimate D2E/DX2                !
 ! D239  D(124,74,75,94)       179.9949         estimate D2E/DX2                !
 ! D240  D(124,74,75,120)       -0.0034         estimate D2E/DX2                !
 ! D241  D(75,74,76,95)         -0.0111         estimate D2E/DX2                !
 ! D242  D(124,74,76,95)       179.9958         estimate D2E/DX2                !
 ! D243  D(74,75,94,93)       -179.9963         estimate D2E/DX2                !
 ! D244  D(74,75,94,95)          0.0105         estimate D2E/DX2                !
 ! D245  D(120,75,94,93)         0.002          estimate D2E/DX2                !
 ! D246  D(120,75,94,95)      -179.9912         estimate D2E/DX2                !
 ! D247  D(74,76,95,94)          0.0165         estimate D2E/DX2                !
 ! D248  D(74,76,95,96)        179.9915         estimate D2E/DX2                !
 ! D249  D(82,77,78,79)          0.0077         estimate D2E/DX2                !
 ! D250  D(82,77,78,88)       -179.9932         estimate D2E/DX2                !
 ! D251  D(86,77,78,79)       -179.9864         estimate D2E/DX2                !
 ! D252  D(86,77,78,88)          0.0127         estimate D2E/DX2                !
 ! D253  D(78,77,82,81)         -0.0098         estimate D2E/DX2                !
 ! D254  D(78,77,82,101)       179.9782         estimate D2E/DX2                !
 ! D255  D(86,77,82,81)        179.9832         estimate D2E/DX2                !
 ! D256  D(86,77,82,101)        -0.0289         estimate D2E/DX2                !
 ! D257  D(78,77,86,87)         -0.0075         estimate D2E/DX2                !
 ! D258  D(78,77,86,99)       -116.5929         estimate D2E/DX2                !
 ! D259  D(78,77,86,100)       120.0378         estimate D2E/DX2                !
 ! D260  D(82,77,86,87)        179.999          estimate D2E/DX2                !
 ! D261  D(82,77,86,99)         63.4137         estimate D2E/DX2                !
 ! D262  D(82,77,86,100)       -59.9557         estimate D2E/DX2                !
 ! D263  D(77,78,79,80)          0.0028         estimate D2E/DX2                !
 ! D264  D(77,78,79,102)      -179.99           estimate D2E/DX2                !
 ! D265  D(88,78,79,80)       -179.9962         estimate D2E/DX2                !
 ! D266  D(88,78,79,102)         0.0111         estimate D2E/DX2                !
 ! D267  D(77,78,88,87)         -0.013          estimate D2E/DX2                !
 ! D268  D(77,78,88,96)        179.985          estimate D2E/DX2                !
 ! D269  D(79,78,88,87)        179.986          estimate D2E/DX2                !
[...]
 Alpha virt. eigenvalues --    0.24215   0.24790   0.24942   0.25094   0.25283
 Alpha virt. eigenvalues --    0.25632   0.25803   0.26030   0.26277   0.26414
 Alpha virt. eigenvalues --    0.26640   0.27455   0.27544   0.28036   0.28146
 Alpha virt. eigenvalues --    0.28866   0.28913   0.28984   0.29532   0.29606
 Alpha virt. eigenvalues --    0.29621   0.29956   0.30125   0.30327   0.30908
 Alpha virt. eigenvalues --    0.31203   0.31291   0.31744   0.31876   0.32168
 Alpha virt. eigenvalues --    0.32575   0.32960   0.33547   0.34497   0.34772
 Alpha virt. eigenvalues --    0.35228   0.35702   0.36131   0.36502   0.36610
 Alpha virt. eigenvalues --    0.37286   0.37841   0.38598   0.38784   0.40089
 Alpha virt. eigenvalues --    0.40255   0.40427   0.40568   0.41303   0.41373
 Alpha virt. eigenvalues --    0.41680   0.41806   0.42467   0.42942   0.43193
 Alpha virt. eigenvalues --    0.43995   0.44239   0.44473   0.44944   0.45384
 Alpha virt. eigenvalues --    0.45622   0.46199   0.46303   0.46786   0.47177
 Alpha virt. eigenvalues --    0.47582   0.47715   0.47950   0.49346   0.49904
 Alpha virt. eigenvalues --    0.50257   0.50604   0.50774   0.50844   0.51292
 Alpha virt. eigenvalues --    0.51654   0.51695   0.52016   0.52576   0.52741
 Alpha virt. eigenvalues --    0.53159   0.54479   0.54595   0.55048   0.55484
 Alpha virt. eigenvalues --    0.55578   0.56918   0.57695   0.59077   0.59451
 Alpha virt. eigenvalues --    0.59934   0.60322   0.60513   0.60910   0.61357
 Alpha virt. eigenvalues --    0.61391   0.61752   0.62450   0.62785   0.63530
 Alpha virt. eigenvalues --    0.63670   0.63966   0.64695   0.64879   0.64929
 Alpha virt. eigenvalues --    0.65314   0.65359   0.65453   0.65559   0.65817
 Alpha virt. eigenvalues --    0.65938   0.65955   0.66392   0.66421   0.66477
 Alpha virt. eigenvalues --    0.66636   0.66740   0.66782   0.66902   0.66997
 Alpha virt. eigenvalues --    0.67160   0.67429   0.67590   0.67920   0.68511
 Alpha virt. eigenvalues --    0.68544   0.68630   0.68858   0.69238   0.69331
 Alpha virt. eigenvalues --    0.69452   0.69825   0.69881   0.69894   0.69931
 Alpha virt. eigenvalues --    0.70143   0.70221   0.70287   0.70302   0.70417
 Alpha virt. eigenvalues --    0.70522   0.70829   0.70883   0.71124   0.71315
 Alpha virt. eigenvalues --    0.71551   0.71598   0.72860   0.72929   0.73207
 Alpha virt. eigenvalues --    0.73703   0.73846   0.73901   0.74038   0.74589
 Alpha virt. eigenvalues --    0.75110   0.75157   0.75251   0.75369   0.75706
 Alpha virt. eigenvalues --    0.75938   0.76000   0.76423   0.76762   0.76983
 Alpha virt. eigenvalues --    0.77249   0.77504   0.77817   0.78313   0.78370
 Alpha virt. eigenvalues --    0.78482   0.78666   0.78813   0.79032   0.79213
 Alpha virt. eigenvalues --    0.79435   0.79828   0.79941   0.80270   0.80503
 Alpha virt. eigenvalues --    0.80650   0.80915   0.81095   0.81276   0.81538
 Alpha virt. eigenvalues --    0.81581   0.81818   0.82425   0.82476   0.82778
 Alpha virt. eigenvalues --    0.83051   0.83701   0.84445   0.84580   0.84661
 Alpha virt. eigenvalues --    0.84868   0.84927   0.84935   0.85282   0.86799
 Alpha virt. eigenvalues --    0.87702   0.88363   0.88473   0.88537   0.88745
 Alpha virt. eigenvalues --    0.89355   0.89542   0.89680   0.90038   0.90452
 Alpha virt. eigenvalues --    0.90957   0.91400   0.91532   0.91665   0.92139
 Alpha virt. eigenvalues --    0.92229   0.92279   0.92842   0.92970   0.93121
 Alpha virt. eigenvalues --    0.93186   0.93526   0.94872   0.94995   0.95311
 Alpha virt. eigenvalues --    0.95523   0.95814   0.95910   0.96087   0.96380
 Alpha virt. eigenvalues --    0.96515   0.96845   0.97055   0.98052   0.98168
 Alpha virt. eigenvalues --    0.98612   0.98806   0.98885   0.99268   0.99681
 Alpha virt. eigenvalues --    0.99886   0.99961   1.00121   1.00133   1.00476
 Alpha virt. eigenvalues --    1.00994   1.01113   1.01647   1.01747   1.01860
 Alpha virt. eigenvalues --    1.02285   1.02894   1.03069   1.03202   1.03255
 Alpha virt. eigenvalues --    1.03260   1.03425   1.03756   1.03832   1.04085
 Alpha virt. eigenvalues --    1.04157   1.04305   1.04460   1.05029   1.05106
 Alpha virt. eigenvalues --    1.05529   1.05623   1.06092   1.06305   1.06406
 Alpha virt. eigenvalues --    1.07430   1.07517   1.07628   1.07852   1.08009
 Alpha virt. eigenvalues --    1.08190   1.08247   1.08456   1.08528   1.08564
 Alpha virt. eigenvalues --    1.08595   1.09022   1.09358   1.09981   1.10913
 Alpha virt. eigenvalues --    1.11286   1.11393   1.11854   1.12007   1.12753
 Alpha virt. eigenvalues --    1.12831   1.12961   1.13034   1.13060   1.13107
 Alpha virt. eigenvalues --    1.13223   1.13315   1.13522   1.13692   1.13794
 Alpha virt. eigenvalues --    1.13878   1.15503   1.15822   1.16254   1.16361
 Alpha virt. eigenvalues --    1.16450   1.16524   1.17121   1.17325   1.17399
 Alpha virt. eigenvalues --    1.17821   1.18903   1.19211   1.19716   1.20145
 Alpha virt. eigenvalues --    1.20241   1.20447   1.20447   1.21175   1.21799
 Alpha virt. eigenvalues --    1.22484   1.22724   1.23315   1.23483   1.23568
 Alpha virt. eigenvalues --    1.23963   1.24939   1.24962   1.26532   1.26844
 Alpha virt. eigenvalues --    1.27634   1.27887   1.28166   1.28408   1.29231
 Alpha virt. eigenvalues --    1.30008   1.30528   1.30970   1.31316   1.32343
 Alpha virt. eigenvalues --    1.32613   1.33528   1.34266   1.34706   1.35777
 Alpha virt. eigenvalues --    1.36638   1.37247   1.37645   1.38257   1.38700
 Alpha virt. eigenvalues --    1.39116   1.40796   1.41254   1.42000   1.42313
 Alpha virt. eigenvalues --    1.42997   1.44153   1.44384   1.45378   1.46399
 Alpha virt. eigenvalues --    1.47059   1.47454   1.47751   1.47907   1.48215
 Alpha virt. eigenvalues --    1.48403   1.49229   1.49349   1.49723   1.49907
 Alpha virt. eigenvalues --    1.50214   1.50510   1.51561   1.51731   1.52897
 Alpha virt. eigenvalues --    1.53976   1.54028   1.54957   1.55501   1.55944
 Alpha virt. eigenvalues --    1.56164   1.56956   1.57154   1.57483   1.57608
 Alpha virt. eigenvalues --    1.58007   1.58668   1.59009   1.59872   1.60976
 Alpha virt. eigenvalues --    1.61260   1.61833   1.61923   1.62358   1.62475
 Alpha virt. eigenvalues --    1.65264   1.65830   1.66063   1.66444   1.66712
 Alpha virt. eigenvalues --    1.67105   1.67548   1.68306   1.70688   1.71469
 Alpha virt. eigenvalues --    1.71890   1.72102   1.72370   1.73287   1.73356
 Alpha virt. eigenvalues --    1.73965   1.75744   1.76135   1.77309   1.77517
 Alpha virt. eigenvalues --    1.79808   1.80048   1.81010   1.84114   1.84976
 Alpha virt. eigenvalues --    1.86364   1.91364   1.91754   1.92431   1.92642
 Alpha virt. eigenvalues --    1.94034   1.95701   1.95770   1.95976   1.96294
 Alpha virt. eigenvalues --    1.96364   1.97938   1.99045   1.99627   2.01132
 Alpha virt. eigenvalues --    2.02221   2.03254   2.05262   2.05979   2.07407
 Alpha virt. eigenvalues --    2.07488   2.10738   2.12161   2.13030   2.15085
 Alpha virt. eigenvalues --    2.16216   2.16403   2.17402   2.41522   2.41643
 Alpha virt. eigenvalues --    2.44936   2.45135   2.46282   2.46482   2.49666
 Alpha virt. eigenvalues --    2.49768   2.62439   2.62617   2.68767   2.68899
 Alpha virt. eigenvalues --    2.74907   2.77411   3.07849   3.13697   3.37815
 Alpha virt. eigenvalues --    3.38290   3.44272   3.48058   3.50095   3.50214
          Condensed to atoms (all electrons):
 Mulliken charges:
               1
     1  C    0.023936
     2  C    0.217601
     3  C   -0.196207
     4  N   -0.604973
     5  N   -0.582151
     6  S    0.605825
     7  H    0.202671
     8  H    0.197618
     9  C   -0.178757
    10  C    0.234178
    11  C   -0.155134
    12  H    0.212028
    13  C   -0.235021
    14  C   -0.180211
    15  S    0.487834
    16  C    0.134733
    17  C    0.034950
    18  C   -0.261762
    19  C    0.134614
    20  C    0.035063
    21  C   -0.261773
    22  C   -0.316932
    23  C    0.127944
    24  C    0.041010
    25  C   -0.317014
    26  C    0.128040
    27  C    0.041041
    28  C   -0.243559
    29  C    0.026438
    30  C   -0.245312
    31  C   -0.249781
    32  C   -0.243238
    33  C    0.026689
    34  C   -0.244819
    35  C   -0.249942
    36  C   -0.493763
    37  C   -0.493761
    38  C   -0.493784
    39  C   -0.493793
    40  H    0.176429
    41  H    0.176230
    42  H    0.177325
    43  H    0.189441
    44  H    0.176884
    45  H    0.189601
    46  H    0.186661
    47  H    0.185853
    48  H    0.206525
    49  H    0.206526
    50  H    0.185853
    51  H    0.186661
    52  H    0.186810
    53  H    0.206505
    54  H    0.186055
    55  H    0.186809
    56  H    0.186055
    57  H    0.206506
    58  H    0.188786
    59  H    0.189338
    60  S    0.489583
    61  C   -0.180345
    62  C   -0.235031
    63  C    0.035360
    64  C    0.246015
    65  C   -0.207642
    66  N   -0.615783
    67  N   -0.606251
    68  S    0.613682
    69  H    0.199956
    70  H    0.214069
    71  C   -0.188469
    72  C    0.233506
    73  C    0.024390
    74  C   -0.423255
    75  C   -0.173657
    76  S    0.407649
    77  C    0.134303
    78  C    0.035972
    79  C   -0.262459
    80  C    0.135120
    81  C    0.034832
    82  C   -0.261739
    83  C   -0.317311
    84  C    0.126880
    85  C    0.041455
    86  C   -0.316955
    87  C    0.127892
    88  C    0.038457
    89  C   -0.239670
    90  C    0.022981
    91  C   -0.227524
    92  C   -0.250646
    93  C   -0.245121
    94  C    0.021969
    95  C   -0.225134
    96  C   -0.244456
    97  C   -0.493992
    98  C   -0.494001
    99  C   -0.493839
   100  C   -0.493833
   101  H    0.175543
   102  H    0.175846
   103  H    0.179034
   104  H    0.189334
   105  H    0.182852
   106  H    0.189587
   107  H    0.186732
   108  H    0.187392
   109  H    0.206507
   110  H    0.206507
   111  H    0.187392
   112  H    0.186733
   113  H    0.186274
   114  H    0.206500
   115  H    0.186512
   116  H    0.186275
   117  H    0.186512
   118  H    0.206500
   119  H    0.233104
   120  H    0.195083
   121  S    0.425365
   122  C   -0.192198
   123  C   -0.233575
   124  H    0.221854
 Sum of Mulliken charges =  -0.00000
 Mulliken charges with hydrogens summed into heavy atoms:
               1
     1  C    0.023936
     2  C    0.217601
     3  C    0.001411
     4  N   -0.604973
     5  N   -0.582151
     6  S    0.605825
     9  C    0.023914
    10  C    0.234178
    11  C    0.056893
    13  C   -0.235021
    14  C    0.009127
    15  S    0.487834
    16  C    0.134733
    17  C    0.034950
    18  C   -0.085532
    19  C    0.134614
    20  C    0.035063
    21  C   -0.085344
    22  C   -0.316932
    23  C    0.127944
    24  C    0.041010
    25  C   -0.317014
    26  C    0.128040
    27  C    0.041041
    28  C   -0.066675
    29  C    0.026438
    30  C   -0.245312
    31  C   -0.060181
    32  C   -0.065913
    33  C    0.026689
    34  C   -0.244819
    35  C   -0.060501
    36  C    0.085276
    37  C    0.085279
    38  C    0.085585
    39  C    0.085577
    60  S    0.489583
    61  C    0.008441
    62  C   -0.235031
    63  C    0.035360
    64  C    0.246015
    65  C    0.006426
    66  N   -0.615783
    67  N   -0.606251
    68  S    0.613682
    71  C    0.011487
    72  C    0.233506
    73  C    0.024390
    74  C   -0.201401
    75  C    0.021426
    76  S    0.407649
    77  C    0.134303
    78  C    0.035972
    79  C   -0.086613
    80  C    0.135120
    81  C    0.034832
    82  C   -0.086196
    83  C   -0.317311
    84  C    0.126880
    85  C    0.041455
    86  C   -0.316955
    87  C    0.127892
    88  C    0.038457
    89  C   -0.056818
    90  C    0.022981
    91  C   -0.227524
    92  C   -0.061059
    93  C   -0.066087
    94  C    0.021969
    95  C   -0.225134
    96  C   -0.055122
    97  C    0.086639
    98  C    0.086631
    99  C    0.085448
   100  C    0.085452
   121  S    0.425365
   122  C    0.040906
   123  C   -0.233575
 Electronic spatial extent (au):  <R**2>=         314553.3882
 Charge=             -0.0000 electrons
 Dipole moment (field-independent basis, Debye):
    X=              0.6650    Y=             -0.4606    Z=              0.0014  Tot=              0.8089
 Quadrupole moment (field-independent basis, Debye-Ang):
   XX=           -431.6670   YY=           -438.3329   ZZ=           -515.3381
   XY=             49.4978   XZ=             -0.0226   YZ=             -0.0047
 Traceless Quadrupole moment (field-independent basis, Debye-Ang):
   XX=             30.1124   YY=             23.4464   ZZ=            -53.5588
   XY=             49.4978   XZ=             -0.0226   YZ=             -0.0047
 Octapole moment (field-independent basis, Debye-Ang**2):
  XXX=            385.0239  YYY=             -3.4324  ZZZ=             -0.0250  XYY=             14.7135
  XXY=           -361.6398  XXZ=              0.6464  XZZ=            -42.9992  YZZ=             -1.2892
  YYZ=             -0.0001  XYZ=              0.2581
 Hexadecapole moment (field-independent basis, Debye-Ang**3):
 XXXX=        -393242.3028 YYYY=         -10263.0208 ZZZZ=          -1227.3357 XXXY=          19726.9751
 XXXZ=             -8.5795 YYYX=              9.8793 YYYZ=             -0.0620 ZZZX=              0.3666
 ZZZY=             -0.0131 XXYY=         -66698.7963 XXZZ=         -76536.9406 YYZZ=          -2086.5709
 XXYZ=             -1.9276 YYXZ=              0.1332 ZZXY=           -261.5664
 N-N= 1.111259552316D+04 E-N=-3.439422586905D+04  KE= 5.151633083201D+03
 Leave Link  601 at Tue Oct 10 21:19:09 2023, MaxMem=  1207959552 cpu:               2.7 elap:               0.3
 (Enter /opt/apps/chemistry/Gaussian/g16/l9999.exe)
 1\1\GINC-NODE057\FOpt\RB3LYP\3-21G*\C68H46N4S6\HMAKKI\10-Oct-2023\0\\#
 p opt b3lyp/3-21g*\\Gaussian optimization calculation on oligomer8\\0,
 1\C,-0.0758873981,-0.6219448752,0.2339797667\C,-0.820275946,0.56736493
 99,0.5332775278\C,-0.8291880285,-1.7540831822,-0.0379647008\N,-0.29108
 55156,1.7700177005,0.8247776282\N,-2.8097890099,1.7674114058,0.8461825
 368\S,-1.552636045,2.8090323356,1.0916668308\H,-2.7625955614,-2.686199
 9464,-0.2504596618\H,-0.325067182,-2.6828451921,-0.2707666103\C,-2.252
 7766448,-1.7567556838,-0.0262019207\C,-2.2746512217,0.5616867423,0.544
 622362\C,-2.9845903987,-0.6307841184,0.257298989\H,-4.0653447926,-0.62
 77097753,0.2674747766\C,16.6674814807,0.1352723729,0.2752288437\C,15.8
 573823144,1.2153314923,0.5491018475\S,15.7102943997,-1.317805336,-0.07
 54265351\C,9.7453343679,0.9118587032,0.527186575\C,10.4119687033,-0.30
 03201019,0.2219491777\C,9.6927229549,-1.4691837094,-0.0605457466\C,8.3
 059539109,-1.4070739897,-0.0331579774\C,7.6394574972,-0.1948952957,0.2
 720732864\C,8.3585912535,0.9739183743,0.5545593264\C,7.2971630322,-2.5
 315654233,-0.3021764899\C,5.9632319102,-1.7974769672,-0.1092366621\C,6
 .1907208791,-0.4290480849,0.2268202105\C,10.7538688842,2.0364432802,0.
 7962711612\C,12.0878214641,1.3025408719,0.6033694076\C,11.8604738666,-
 0.0659942455,0.2672562556\C,4.6839324885,-2.2963458989,-0.2213381903\C
 ,3.5923168234,-1.4245420272,0.0035312868\C,3.8338174899,-0.0610040137,
 0.3382546002\C,5.1327751907,0.4450647807,0.4519464693\C,13.3668231498,
 1.8017225193,0.71558523\C,14.4589900779,0.9301724171,0.4908007192\C,14
 .2174437514,-0.4337592814,0.1559361188\C,12.9189634033,-0.9399750773,0
 .0421469474\C,7.4551350447,-3.6756896225,0.7298985863\C,7.4335674263,-
 3.0628769766,-1.7507160145\C,10.6173808491,2.5676449432,2.2448595927\C
 ,10.5958258733,3.1806083551,-0.2357516397\H,7.8436400578,1.899803329,0
 .7877562739\H,10.2076484412,-2.3950904449,-0.2937438172\H,13.548831993
 9,2.8403801955,0.9705778455\H,12.7458106873,-1.9791230336,-0.213065038
 4\H,4.5017144722,-3.3349931006,-0.4763228219\H,5.3060578583,1.48420406
 11,0.707108629\H,8.4394974981,-4.1462706976,0.6265616398\H,6.686634927
 1,-4.4400369948,0.5678224819\H,7.3553887439,-3.2843361594,1.7462330657
 \H,7.3187624276,-2.243707513,-2.4661342324\H,6.6647370136,-3.817879740
 6,-1.9506148932\H,8.4175776766,-3.5234592383,-1.894527644\H,9.61140061
 73,3.651035485,-0.1324066655\H,10.6956706464,2.7893675673,-1.252120550
 9\H,11.364196884,3.9450493177,-0.0735732867\H,9.6333040947,3.028073073
 8,2.3886395256\H,11.3860820996,3.3227512769,2.4448069505\H,10.73228160
 23,1.7484685059,2.9602545319\H,1.8118616593,-2.6920721099,-0.294234252
 1\H,16.2376572321,2.1986876857,0.7888047546\S,2.3415972755,0.823435150
 3,0.5696073392\C,2.1926646142,-1.7088944994,-0.0545153299\C,1.38469332
 02,-0.6292441299,0.2192542506\C,21.0693991018,0.1548751455,0.242085859
 1\C,20.3369844337,-1.0469700393,-0.0485525015\C,20.2907428805,1.270894
 1349,0.5244834426\N,20.8538785778,-2.2549061615,-0.3514455916\N,18.347
 3056909,-2.2485701055,-0.3282882306\S,19.5955317481,-3.2963731636,-0.5
 979389897\H,18.3766910721,2.1924382943,0.7686139424\H,20.7844870619,2.
 208527224,0.7518576946\C,18.8794942633,1.2632773553,0.5347537137\C,18.
 8789989107,-1.0482298401,-0.0362947705\C,18.1232535441,0.1310672656,0.
 2615705031\C,37.6996064352,2.0229266995,0.5615257765\C,36.8469478411,3
 .0495884534,0.8226924036\S,36.8778132885,0.5210962559,0.197214171\C,30
 .7548090754,2.3213996454,0.6948483535\C,31.5064900587,1.1576638049,0.4
 006534205\C,30.8733809858,-0.0564413076,0.1058867546\C,29.4849405861,-
 0.088488062,0.1098746611\C,28.7332148157,1.0752264262,0.4040583659\C,2
 9.3666284221,2.2896367742,0.698902043\C,28.5592145112,-1.2781901648,-0
 .1763226103\C,27.1759095723,-0.6360315966,-0.0057063347\C,27.304847151
 8,0.7426497633,0.3340713894\C,31.6807525275,3.5111009729,0.9810665324\
 C,33.0641921854,2.8689504939,0.8104407017\C,32.9362477274,1.4910660587
 ,0.4708330047\C,25.934396418,-1.2206553167,-0.1396165848\C,24.78164159
 61,-0.4285476163,0.0661152623\C,24.9295471122,0.9480724651,0.405206635
 2\C,26.1853328401,1.5437432257,0.541725618\C,34.306114162,3.4550198461
 ,0.9447157404\C,35.4578873315,2.6648563514,0.7394640922\C,35.312864359
 6,1.2887780984,0.4004462641\C,34.0554516028,0.69210875,0.2636849269\C,
 28.7766029242,-2.4102362143,0.8582807538\C,28.7553605322,-1.7969868613
 ,-1.6225319759\C,31.4843766229,4.0298402786,2.4272336533\C,31.46313135
 72,4.6431375831,-0.0534449698\H,28.7867058811,3.1785406389,0.923671473
 4\H,31.4533546162,-0.9452854824,-0.1188620272\H,34.4112615447,4.503381
 7369,1.20304082\H,33.9590609323,-0.3560032059,0.0053475425\H,25.826130
 2274,-2.2685354196,-0.3977864655\H,26.2834761693,2.5916034369,0.799959
 5565\H,29.792261345,-2.8126486291,0.7714005407\H,28.0646412381,-3.2247
 358857,0.6832527987\H,28.63356357,-2.0278026976,1.8728407392\H,28.5974
 993677,-0.9865030009,-2.3396405935\H,28.0430730048,-2.6020685861,-1.83
 5664712\H,29.7706719365,-2.1894893672,-1.7495381839\H,30.4475072867,5.
 0457312905,0.0333913562\H,31.6061309608,4.2605869076,-1.0679677824\H,3
 2.1751651991,5.4576570661,0.1214433659\H,30.4691006114,4.4224726307,2.
 5543906928\H,32.1967410953,4.8348598689,2.640544647\H,31.6422008598,3.
 2192213767,3.1441992522\H,23.0674202551,-1.8134579442,-0.2616220007\H,
 37.1721926685,4.0514062471,1.0676213896\S,23.3708407382,1.7186660349,0
 .6090665926\C,23.4058489359,-0.8180436938,-0.0184243126\C,22.520867330
 3,0.2004943158,0.2409546168\H,38.7782930121,2.054905649,0.5601898067\\
 Version=ES64L-G16RevA.03\State=1-A\HF=-5200.4840963\RMSD=6.712e-09\RMS
 F=1.344e-06\Dipole=0.2694096,-0.1640315,-0.042292\Quadrupole=19.103879
 6,17.3747624,-36.478642,35.9195214,8.3497217,13.8173011\PG=C01 [X(C68H
 46N4S6)]\\@


 I WISH TO HAVE NO CONNECTION WITH ANY SHIP THAT DOES NOT SAIL FAST,
 FOR I INTEND TO GO IN HARM'S WAY.
     -- JOHN PAUL JONES, USN 1747-1792
 Job cpu time:       0 days  4 hours 27 minutes 41.7 seconds.
 Elapsed time:       0 days  0 hours 26 minutes 58.8 seconds.
 File lengths (MBytes):  RWF=    461 Int=      0 D2E=      0 Chk=     64 Scr=      1
 Normal termination of Gaussian 16 at Tue Oct 10 21:19:09 2023.
