 Entering Gaussian System, Link 0=g16
 Input=oligomer-7.com
 Output=oligomer-7.log
 Initial command:
 /opt/apps/chemistry/Gaussian/g16/l1.exe "/tmp/Gau-348.inp" -scrdir="/tmp/"
 Entering Link 1 = /opt/apps/chemistry/Gaussian/g16/l1.exe PID=       349.
  
 Copyright (c) 1988,1990,1992,1993,1995,1998,2003,2009,2016,
            Gaussian, Inc.  All Rights Reserved.
  
 This is part of the Gaussian(R) 16 program.  It is based on
 the Gaussian(R) 09 system (copyright 2009, Gaussian, Inc.),
 the Gaussian(R) 03 system (copyright 2003, Gaussian, Inc.),
 the Gaussian(R) 98 system (copyright 1998, Gaussian, Inc.),
 the Gaussian(R) 94 system (copyright 1995, Gaussian, Inc.),
 the Gaussian 92(TM) system (copyright 1992, Gaussian, Inc.),
 the Gaussian 90(TM) system (copyright 1990, Gaussian, Inc.),
 the Gaussian 88(TM) system (copyright 1988, Gaussian, Inc.),
 the Gaussian 86(TM) system (copyright 1986, Carnegie Mellon
 University), and the Gaussian 82(TM) system (copyright 1983,
 Carnegie Mellon University). Gaussian is a federally registered
 trademark of Gaussian, Inc.
  
 This software contains proprietary and confidential information,
 including trade secrets, belonging to Gaussian, Inc.
  
 This software is provided under written license and may be
 used, copied, transmitted, or stored only in accord with that
 written license.
  
 The following legend is applicable only to US Government
 contracts under FAR:
  
                    RESTRICTED RIGHTS LEGEND
  
 Use, reproduction and disclosure by the US Government is
 subject to restrictions as set forth in subparagraphs (a)
 and (c) of the Commercial Computer Software - Restricted
 Rights clause in FAR 52.227-19.
  
 Gaussian, Inc.
 340 Quinnipiac St., Bldg. 40, Wallingford CT 06492
  
  
 ---------------------------------------------------------------
 Warning -- This program may not be used in any manner that
 competes with the business of Gaussian, Inc. or will provide
 assistance to any competitor of Gaussian, Inc.  The licensee
 of this program is prohibited from giving any competitor of
 Gaussian, Inc. access to this program.  By using this program,
 the user acknowledges that Gaussian, Inc. is engaged in the
 business of creating and licensing software in the field of
 computational chemistry and represents and warrants to the
 licensee that it is not a competitor of Gaussian, Inc. and that
 it will not use this program in any manner prohibited above.
 ---------------------------------------------------------------
  

 Cite this work as:
 Gaussian 16, Revision A.03,
 M. J. Frisch, G. W. Trucks, H. B. Schlegel, G. E. Scuseria, 
 M. A. Robb, J. R. Cheeseman, G. Scalmani, V. Barone, 
 G. A. Petersson, H. Nakatsuji, X. Li, M. Caricato, A. V. Marenich, 
 J. Bloino, B. G. Janesko, R. Gomperts, B. Mennucci, H. P. Hratchian, 
 J. V. Ortiz, A. F. Izmaylov, J. L. Sonnenberg, D. Williams-Young, 
 F. Ding, F. Lipparini, F. Egidi, J. Goings, B. Peng, A. Petrone, 
 T. Henderson, D. Ranasinghe, V. G. Zakrzewski, J. Gao, N. Rega, 
 G. Zheng, W. Liang, M. Hada, M. Ehara, K. Toyota, R. Fukuda, 
 J. Hasegawa, M. Ishida, T. Nakajima, Y. Honda, O. Kitao, H. Nakai, 
 T. Vreven, K. Throssell, J. A. Montgomery, Jr., J. E. Peralta, 
 F. Ogliaro, M. J. Bearpark, J. J. Heyd, E. N. Brothers, K. N. Kudin, 
 V. N. Staroverov, T. A. Keith, R. Kobayashi, J. Normand, 
 K. Raghavachari, A. P. Rendell, J. C. Burant, S. S. Iyengar, 
 J. Tomasi, M. Cossi, J. M. Millam, M. Klene, C. Adamo, R. Cammi, 
 J. W. Ochterski, R. L. Martin, K. Morokuma, O. Farkas, 
 J. B. Foresman, and D. J. Fox, Gaussian, Inc., Wallingford CT, 2016.
 
 ******************************************
 Gaussian 16:  ES64L-G16RevA.03 25-Dec-2016
                10-Oct-2023 
 ******************************************
 %nproc=10
 Will use up to   10 processors via shared memory.
 %mem=9GB
 %chk=TIFBT7.chk
 -------------------
 #p opt b3lyp/3-21g*
 -------------------
 1/18=20,19=15,26=3,38=1/1,3;
 2/9=110,12=2,17=6,18=5,40=1/2;
 3/5=5,7=1,11=2,25=1,30=1,71=1,74=-5/1,2,3;
 4//1;
 5/5=2,38=5/2;
 6/7=2,8=2,9=2,10=2,28=1/1;
 7//1,2,3,16;
 1/18=20,19=15,26=3/3(2);
 2/9=110/2;
 99//99;
 2/9=110/2;
 3/5=5,7=1,11=2,25=1,30=1,71=1,74=-5/1,2,3;
 4/5=5,16=3,69=1/1;
 5/5=2,38=5/2;
 7//1,2,3,16;
 1/18=20,19=15,26=3/3(-5);
 2/9=110/2;
 6/7=2,8=2,9=2,10=2,19=2,28=1/1;
 99/9=1/99;
 Leave Link    1 at Tue Oct 10 20:31:07 2023, MaxMem=  1207959552 cpu:               0.4 elap:               0.1
 (Enter /opt/apps/chemistry/Gaussian/g16/l101.exe)
 ----------------------------------------------
 Gaussian optimization calculation on oligomer7
 ----------------------------------------------
 Symbolic Z-matrix:
 Charge =  0 Multiplicity = 1
 C                     0.        0.        0. 
 C                    -0.76861   1.17807   0.23067 
 C                    -0.66871  -1.1854   -0.16311 
 N                    -0.28739   2.41509   0.41124 
 N                    -2.80963   2.28236   0.51006 
 S                    -1.59634   3.3866    0.63376 
 H                    -2.57341  -2.22849  -0.24367 
 H                    -0.10769  -2.09875  -0.34028 
 C                    -2.09908  -1.26067  -0.10707 
 C                    -2.21698   1.10185   0.28741 
 C                    -2.87355  -0.15121   0.11258 
 H                    -3.95641  -0.19983   0.15638 
 C                     16.69197  -0.75594   0.21374 
 C                     16.04118   0.37984   0.53909 
 S                     15.60478  -2.09141  -0.17007 
 C                     9.92135   0.64947   0.61216 
 C                     10.44074  -0.60466   0.25263 
 C                     9.58848  -1.68497  -0.05823 
 C                     8.21547  -1.49201  -0.00413 
 C                     7.69611  -0.23795   0.35556 
 C                     8.54836   0.84236   0.66647 
 C                     7.08742  -2.50029  -0.29492 
 C                     5.85136  -1.65203  -0.05223 
 C                     6.23183  -0.33172   0.32727 
 C                     11.04931   1.65794   0.90229 
 C                     12.28541   0.80966   0.65989 
 C                     11.90501  -0.5108    0.28086 
 C                     4.51869  -2.02391  -0.16023 
 C                     3.52985  -1.07014   0.11284 
 C                     3.93168   0.24412   0.49086 
 C                     5.27819   0.62852   0.60248 
 C                     13.61802   1.18173   0.76746 
 C                     14.60694   0.22797   0.49461 
 C                     14.20523  -1.08659   0.11756 
 C                     12.85876  -1.47116   0.00632 
 C                     7.20327  -3.70265   0.67452 
 C                     7.07156  -2.99784  -1.75203 
 C                     11.06544   2.15505   2.35961 
 C                     10.93319   2.86059  -0.0667 
 H                     8.14309   1.80602   0.94309 
 H                     9.99377  -2.64878  -0.33436 
 H                     13.91672   2.19065   1.05702 
 H                     12.57167  -2.48179  -0.28346 
 H                     4.21992  -3.03263  -0.45038 
 H                     5.56539   1.63884   0.89327 
 H                     8.12643  -4.26559   0.53626 
 H                     6.35584  -4.38768   0.49814 
 H                     7.21505  -3.37175   1.71387 
 H                     6.98925  -2.16046  -2.45617 
 H                     6.22176  -3.67122  -1.9672 
 H                     7.99225  -3.54924  -1.9314 
 H                     10.01036   3.42374   0.07248 
 H                     10.92054   2.52997  -1.10617 
 H                     11.78093   3.54527   0.10942 
 H                     10.14441   2.70566   2.53962 
 H                     11.91483   2.829     2.57474 
 H                     11.1487   1.31751   3.06353 
 H                     1.58651  -2.1494   -0.19939 
 H                     16.55015   1.30771   0.80553 
 S                     2.53216   1.24912   0.77816 
 C                     2.09557  -1.22174   0.06771 
 C                     1.44487  -0.0861    0.39362 
 C                     21.03439  -0.19983   0.15638 
 C                     20.49095  -1.47227   0.50215 
 C                     20.16383   0.80613  -0.17078 
 N                     21.18653  -2.56326   0.84668 
 N                     18.68364  -2.91628   0.84526 
 S                     20.07484  -3.74104   1.14153 
 H                     18.10407   1.44089  -0.43973 
 H                     20.55087   1.78601  -0.43835 
 C                     18.74443   0.60594  -0.17159 
 C                     19.05369  -1.67499   0.50133 
 C                     18.18289  -0.60203   0.15477 
 C                     37.72973   1.21674   0.5822 
 C                     37.09055   0.05642   0.88221 
 S                     36.63287   2.51406   0.15506 
 C                     30.98635  -0.43479   0.71382 
 C                     31.49336   0.83923   0.3744 
 C                     30.63325   1.88967   0.02957 
 C                     29.26497   1.64688   0.02955 
 C                     28.75798   0.37293   0.36912 
 C                     29.61807  -0.67751   0.714 
 C                     28.13036   2.61524  -0.30608 
 C                     26.90457   1.72154  -0.11192 
 C                     27.29605   0.41382   0.28302 
 C                     32.12095  -1.40336   1.04879 
 C                     33.34674  -0.50962   0.85491 
 C                     32.95528   0.79824   0.46045 
 C                     25.57147   2.04554  -0.27263 
 C                     24.59332   1.05516  -0.03829 
 C                     25.00604  -0.24572   0.356 
 C                     26.35306  -0.58176   0.52089 
 C                     34.67983  -0.83382   1.01519 
 C                     35.65804   0.15655   0.78108 
 C                     35.24534   1.45774   0.38776 
 C                     33.89832   1.79395   0.22326 
 C                     28.11078   3.81585   0.66653 
 C                     28.23443   3.11966  -1.76295 
 C                     32.0171  -1.90732   2.50588 
 C                     32.14021  -2.60426   0.07661 
 H                     29.22229  -1.65668   0.97493 
 H                     31.029    2.86898  -0.23086 
 H                     34.98697  -1.83282   1.31685 
 H                     33.60272   2.79508  -0.07817 
 H                     25.26433   3.04435  -0.57488 
 H                     26.64865  -1.58258   0.82331 
 H                     29.02476   4.41256   0.56451 
 H                     27.25706   4.47072   0.45648 
 H                     28.03615   3.48005   1.70571 
 H                     28.24917   2.2836   -2.46934 
 H                     27.38243   3.76302  -2.01185 
 H                     29.15024   3.70497  -1.90614 
 H                     31.22649  -3.20117   0.17956 
 H                     32.214   -2.26877  -0.96272 
 H                     32.99425  -3.25877   0.28641 
 H                     31.10087  -2.49185   2.64969 
 H                     32.86872  -2.55125   2.75472 
 H                     32.00333  -1.07107   3.21208 
 H                     22.6446   2.0651   -0.42756 
 H                     37.60678  -0.85385   1.16902 
 S                     23.61858  -1.30222   0.58837 
 C                     23.16084   1.15503  -0.14008 
 C                     22.5217  -0.00515   0.16051 
 H                     38.79548   1.40466   0.5822 
 
 ITRead=  0  0  0  0  0  0  0  0  0  0  0  0  0  0  0  0  0  0  0  0
 ITRead=  0  0  0  0  0  0  0  0  0  0  0  0  0  0  0  0  0  0  0  0
 ITRead=  0  0  0  0  0  0  0  0  0  0  0  0  0  0  0  0  0  0  0  0
 ITRead=  0  0  0  0  0  0  0  0  0  0  0  0  0  0  0  0  0  0  0  0
 ITRead=  0  0  0  0  0  0  0  0  0  0  0  0  0  0  0  0  0  0  0  0
 ITRead=  0  0  0  0  0  0  0  0  0  0  0  0  0  0  0  0  0  0  0  0
 ITRead=  0  0  0  0
 MicOpt= -1 -1 -1 -1 -1 -1 -1 -1 -1 -1 -1 -1 -1 -1 -1 -1 -1 -1 -1 -1
 MicOpt= -1 -1 -1 -1 -1 -1 -1 -1 -1 -1 -1 -1 -1 -1 -1 -1 -1 -1 -1 -1
 MicOpt= -1 -1 -1 -1 -1 -1 -1 -1 -1 -1 -1 -1 -1 -1 -1 -1 -1 -1 -1 -1
 MicOpt= -1 -1 -1 -1 -1 -1 -1 -1 -1 -1 -1 -1 -1 -1 -1 -1 -1 -1 -1 -1
 MicOpt= -1 -1 -1 -1 -1 -1 -1 -1 -1 -1 -1 -1 -1 -1 -1 -1 -1 -1 -1 -1
 MicOpt= -1 -1 -1 -1 -1 -1 -1 -1 -1 -1 -1 -1 -1 -1 -1 -1 -1 -1 -1 -1
 MicOpt= -1 -1 -1 -1
 NAtoms=    124 NQM=      124 NQMF=       0 NMMI=      0 NMMIF=      0
                NMic=       0 NMicF=      0.
                    Isotopes and Nuclear Properties:
 (Nuclear quadrupole moments (NQMom) in fm**2, nuclear magnetic moments (NMagM)
  in nuclear magnetons)

  Atom         1           2           3           4           5           6           7           8           9          10
 IAtWgt=          12          12          12          14          14          32           1           1          12          12
 AtmWgt=  12.0000000  12.0000000  12.0000000  14.0030740  14.0030740  31.9720718   1.0078250   1.0078250  12.0000000  12.0000000
 NucSpn=           0           0           0           2           2           0           1           1           0           0
 AtZEff=  -0.0000000  -0.0000000  -0.0000000  -0.0000000  -0.0000000  -0.0000000  -0.0000000  -0.0000000  -0.0000000  -0.0000000
 NQMom=    0.0000000   0.0000000   0.0000000   2.0440000   2.0440000   0.0000000   0.0000000   0.0000000   0.0000000   0.0000000
 NMagM=    0.0000000   0.0000000   0.0000000   0.4037610   0.4037610   0.0000000   2.7928460   2.7928460   0.0000000   0.0000000
 AtZNuc=   6.0000000   6.0000000   6.0000000   7.0000000   7.0000000  16.0000000   1.0000000   1.0000000   6.0000000   6.0000000

  Atom        11          12          13          14          15          16          17          18          19          20
 IAtWgt=          12           1          12          12          32          12          12          12          12          12
 AtmWgt=  12.0000000   1.0078250  12.0000000  12.0000000  31.9720718  12.0000000  12.0000000  12.0000000  12.0000000  12.0000000
 NucSpn=           0           1           0           0           0           0           0           0           0           0
 AtZEff=  -0.0000000  -0.0000000  -0.0000000  -0.0000000  -0.0000000  -0.0000000  -0.0000000  -0.0000000  -0.0000000  -0.0000000
 NQMom=    0.0000000   0.0000000   0.0000000   0.0000000   0.0000000   0.0000000   0.0000000   0.0000000   0.0000000   0.0000000
 NMagM=    0.0000000   2.7928460   0.0000000   0.0000000   0.0000000   0.0000000   0.0000000   0.0000000   0.0000000   0.0000000
 AtZNuc=   6.0000000   1.0000000   6.0000000   6.0000000  16.0000000   6.0000000   6.0000000   6.0000000   6.0000000   6.0000000

  Atom        21          22          23          24          25          26          27          28          29          30
 IAtWgt=          12          12          12          12          12          12          12          12          12          12
 AtmWgt=  12.0000000  12.0000000  12.0000000  12.0000000  12.0000000  12.0000000  12.0000000  12.0000000  12.0000000  12.0000000
 NucSpn=           0           0           0           0           0           0           0           0           0           0
 AtZEff=  -0.0000000  -0.0000000  -0.0000000  -0.0000000  -0.0000000  -0.0000000  -0.0000000  -0.0000000  -0.0000000  -0.0000000
 NQMom=    0.0000000   0.0000000   0.0000000   0.0000000   0.0000000   0.0000000   0.0000000   0.0000000   0.0000000   0.0000000
 NMagM=    0.0000000   0.0000000   0.0000000   0.0000000   0.0000000   0.0000000   0.0000000   0.0000000   0.0000000   0.0000000
 AtZNuc=   6.0000000   6.0000000   6.0000000   6.0000000   6.0000000   6.0000000   6.0000000   6.0000000   6.0000000   6.0000000

  Atom        31          32          33          34          35          36          37          38          39          40
 IAtWgt=          12          12          12          12          12          12          12          12          12           1
 AtmWgt=  12.0000000  12.0000000  12.0000000  12.0000000  12.0000000  12.0000000  12.0000000  12.0000000  12.0000000   1.0078250
 NucSpn=           0           0           0           0           0           0           0           0           0           1
 AtZEff=  -0.0000000  -0.0000000  -0.0000000  -0.0000000  -0.0000000  -0.0000000  -0.0000000  -0.0000000  -0.0000000  -0.0000000
 NQMom=    0.0000000   0.0000000   0.0000000   0.0000000   0.0000000   0.0000000   0.0000000   0.0000000   0.0000000   0.0000000
 NMagM=    0.0000000   0.0000000   0.0000000   0.0000000   0.0000000   0.0000000   0.0000000   0.0000000   0.0000000   2.7928460
 AtZNuc=   6.0000000   6.0000000   6.0000000   6.0000000   6.0000000   6.0000000   6.0000000   6.0000000   6.0000000   1.0000000

  Atom        41          42          43          44          45          46          47          48          49          50
 IAtWgt=           1           1           1           1           1           1           1           1           1           1
 AtmWgt=   1.0078250   1.0078250   1.0078250   1.0078250   1.0078250   1.0078250   1.0078250   1.0078250   1.0078250   1.0078250
 NucSpn=           1           1           1           1           1           1           1           1           1           1
 AtZEff=  -0.0000000  -0.0000000  -0.0000000  -0.0000000  -0.0000000  -0.0000000  -0.0000000  -0.0000000  -0.0000000  -0.0000000
 NQMom=    0.0000000   0.0000000   0.0000000   0.0000000   0.0000000   0.0000000   0.0000000   0.0000000   0.0000000   0.0000000
 NMagM=    2.7928460   2.7928460   2.7928460   2.7928460   2.7928460   2.7928460   2.7928460   2.7928460   2.7928460   2.7928460
 AtZNuc=   1.0000000   1.0000000   1.0000000   1.0000000   1.0000000   1.0000000   1.0000000   1.0000000   1.0000000   1.0000000

  Atom        51          52          53          54          55          56          57          58          59          60
 IAtWgt=           1           1           1           1           1           1           1           1           1          32
 AtmWgt=   1.0078250   1.0078250   1.0078250   1.0078250   1.0078250   1.0078250   1.0078250   1.0078250   1.0078250  31.9720718
 NucSpn=           1           1           1           1           1           1           1           1           1           0
 AtZEff=  -0.0000000  -0.0000000  -0.0000000  -0.0000000  -0.0000000  -0.0000000  -0.0000000  -0.0000000  -0.0000000  -0.0000000
 NQMom=    0.0000000   0.0000000   0.0000000   0.0000000   0.0000000   0.0000000   0.0000000   0.0000000   0.0000000   0.0000000
 NMagM=    2.7928460   2.7928460   2.7928460   2.7928460   2.7928460   2.7928460   2.7928460   2.7928460   2.7928460   0.0000000
 AtZNuc=   1.0000000   1.0000000   1.0000000   1.0000000   1.0000000   1.0000000   1.0000000   1.0000000   1.0000000  16.0000000

  Atom        61          62          63          64          65          66          67          68          69          70
 IAtWgt=          12          12          12          12          12          14          14          32           1           1
 AtmWgt=  12.0000000  12.0000000  12.0000000  12.0000000  12.0000000  14.0030740  14.0030740  31.9720718   1.0078250   1.0078250
 NucSpn=           0           0           0           0           0           2           2           0           1           1
 AtZEff=  -0.0000000  -0.0000000  -0.0000000  -0.0000000  -0.0000000  -0.0000000  -0.0000000  -0.0000000  -0.0000000  -0.0000000
 NQMom=    0.0000000   0.0000000   0.0000000   0.0000000   0.0000000   2.0440000   2.0440000   0.0000000   0.0000000   0.0000000
 NMagM=    0.0000000   0.0000000   0.0000000   0.0000000   0.0000000   0.4037610   0.4037610   0.0000000   2.7928460   2.7928460
 AtZNuc=   6.0000000   6.0000000   6.0000000   6.0000000   6.0000000   7.0000000   7.0000000  16.0000000   1.0000000   1.0000000

  Atom        71          72          73          74          75          76          77          78          79          80
 IAtWgt=          12          12          12          12          12          32          12          12          12          12
 AtmWgt=  12.0000000  12.0000000  12.0000000  12.0000000  12.0000000  31.9720718  12.0000000  12.0000000  12.0000000  12.0000000
 NucSpn=           0           0           0           0           0           0           0           0           0           0
 AtZEff=  -0.0000000  -0.0000000  -0.0000000  -0.0000000  -0.0000000  -0.0000000  -0.0000000  -0.0000000  -0.0000000  -0.0000000
 NQMom=    0.0000000   0.0000000   0.0000000   0.0000000   0.0000000   0.0000000   0.0000000   0.0000000   0.0000000   0.0000000
 NMagM=    0.0000000   0.0000000   0.0000000   0.0000000   0.0000000   0.0000000   0.0000000   0.0000000   0.0000000   0.0000000
 AtZNuc=   6.0000000   6.0000000   6.0000000   6.0000000   6.0000000  16.0000000   6.0000000   6.0000000   6.0000000   6.0000000

  Atom        81          82          83          84          85          86          87          88          89          90
 IAtWgt=          12          12          12          12          12          12          12          12          12          12
 AtmWgt=  12.0000000  12.0000000  12.0000000  12.0000000  12.0000000  12.0000000  12.0000000  12.0000000  12.0000000  12.0000000
 NucSpn=           0           0           0           0           0           0           0           0           0           0
 AtZEff=  -0.0000000  -0.0000000  -0.0000000  -0.0000000  -0.0000000  -0.0000000  -0.0000000  -0.0000000  -0.0000000  -0.0000000
 NQMom=    0.0000000   0.0000000   0.0000000   0.0000000   0.0000000   0.0000000   0.0000000   0.0000000   0.0000000   0.0000000
 NMagM=    0.0000000   0.0000000   0.0000000   0.0000000   0.0000000   0.0000000   0.0000000   0.0000000   0.0000000   0.0000000
 AtZNuc=   6.0000000   6.0000000   6.0000000   6.0000000   6.0000000   6.0000000   6.0000000   6.0000000   6.0000000   6.0000000

  Atom        91          92          93          94          95          96          97          98          99         100
 IAtWgt=          12          12          12          12          12          12          12          12          12          12
 AtmWgt=  12.0000000  12.0000000  12.0000000  12.0000000  12.0000000  12.0000000  12.0000000  12.0000000  12.0000000  12.0000000
 NucSpn=           0           0           0           0           0           0           0           0           0           0
 AtZEff=  -0.0000000  -0.0000000  -0.0000000  -0.0000000  -0.0000000  -0.0000000  -0.0000000  -0.0000000  -0.0000000  -0.0000000
 NQMom=    0.0000000   0.0000000   0.0000000   0.0000000   0.0000000   0.0000000   0.0000000   0.0000000   0.0000000   0.0000000
 NMagM=    0.0000000   0.0000000   0.0000000   0.0000000   0.0000000   0.0000000   0.0000000   0.0000000   0.0000000   0.0000000
 AtZNuc=   6.0000000   6.0000000   6.0000000   6.0000000   6.0000000   6.0000000   6.0000000   6.0000000   6.0000000   6.0000000

  Atom       101         102         103         104         105         106         107         108         109         110
 IAtWgt=           1           1           1           1           1           1           1           1           1           1
 AtmWgt=   1.0078250   1.0078250   1.0078250   1.0078250   1.0078250   1.0078250   1.0078250   1.0078250   1.0078250   1.0078250
 NucSpn=           1           1           1           1           1           1           1           1           1           1
 AtZEff=  -0.0000000  -0.0000000  -0.0000000  -0.0000000  -0.0000000  -0.0000000  -0.0000000  -0.0000000  -0.0000000  -0.0000000
 NQMom=    0.0000000   0.0000000   0.0000000   0.0000000   0.0000000   0.0000000   0.0000000   0.0000000   0.0000000   0.0000000
 NMagM=    2.7928460   2.7928460   2.7928460   2.7928460   2.7928460   2.7928460   2.7928460   2.7928460   2.7928460   2.7928460
 AtZNuc=   1.0000000   1.0000000   1.0000000   1.0000000   1.0000000   1.0000000   1.0000000   1.0000000   1.0000000   1.0000000

  Atom       111         112         113         114         115         116         117         118         119         120
 IAtWgt=           1           1           1           1           1           1           1           1           1           1
 AtmWgt=   1.0078250   1.0078250   1.0078250   1.0078250   1.0078250   1.0078250   1.0078250   1.0078250   1.0078250   1.0078250
 NucSpn=           1           1           1           1           1           1           1           1           1           1
 AtZEff=  -0.0000000  -0.0000000  -0.0000000  -0.0000000  -0.0000000  -0.0000000  -0.0000000  -0.0000000  -0.0000000  -0.0000000
 NQMom=    0.0000000   0.0000000   0.0000000   0.0000000   0.0000000   0.0000000   0.0000000   0.0000000   0.0000000   0.0000000
 NMagM=    2.7928460   2.7928460   2.7928460   2.7928460   2.7928460   2.7928460   2.7928460   2.7928460   2.7928460   2.7928460
 AtZNuc=   1.0000000   1.0000000   1.0000000   1.0000000   1.0000000   1.0000000   1.0000000   1.0000000   1.0000000   1.0000000

  Atom       121         122         123         124
 IAtWgt=          32          12          12           1
 AtmWgt=  31.9720718  12.0000000  12.0000000   1.0078250
 NucSpn=           0           0           0           1
 AtZEff=  -0.0000000  -0.0000000  -0.0000000  -0.0000000
 NQMom=    0.0000000   0.0000000   0.0000000   0.0000000
 NMagM=    0.0000000   0.0000000   0.0000000   2.7928460
 AtZNuc=  16.0000000   6.0000000   6.0000000   1.0000000
 Leave Link  101 at Tue Oct 10 20:31:08 2023, MaxMem=  1207959552 cpu:               7.6 elap:               0.8
 (Enter /opt/apps/chemistry/Gaussian/g16/l103.exe)

 GradGradGradGradGradGradGradGradGradGradGradGradGradGradGradGradGradGrad
 Berny optimization.
 Initialization pass.
                           ----------------------------
                           !    Initial Parameters    !
                           ! (Angstroms and Degrees)  !
 --------------------------                            --------------------------
 ! Name  Definition              Value          Derivative Info.                !
 --------------------------------------------------------------------------------
 ! R1    R(1,2)                  1.4254         estimate D2E/DX2                !
 ! R2    R(1,3)                  1.3707         estimate D2E/DX2                !
 ! R3    R(1,62)                 1.5            estimate D2E/DX2                !
 ! R4    R(2,4)                  1.3396         estimate D2E/DX2                !
 ! R5    R(2,10)                 1.4515         estimate D2E/DX2                !
 ! R6    R(3,8)                  1.0864         estimate D2E/DX2                !
 ! R7    R(3,9)                  1.4334         estimate D2E/DX2                !
 ! R8    R(4,6)                  1.6452         estimate D2E/DX2                !
 ! R9    R(5,6)                  1.6452         estimate D2E/DX2                !
 ! R10   R(5,10)                 1.3395         estimate D2E/DX2                !
 ! R11   R(7,9)                  1.0864         estimate D2E/DX2                !
 ! R12   R(9,11)                 1.3708         estimate D2E/DX2                !
 ! R13   R(10,11)                1.4254         estimate D2E/DX2                !
 ! R14   R(11,12)                1.0848         estimate D2E/DX2                !
 ! R15   R(13,14)                1.3488         estimate D2E/DX2                !
 ! R16   R(13,15)                1.7643         estimate D2E/DX2                !
 ! R17   R(13,73)                1.5            estimate D2E/DX2                !
 ! R18   R(14,33)                1.4429         estimate D2E/DX2                !
 ! R19   R(14,59)                1.0913         estimate D2E/DX2                !
 ! R20   R(15,34)                1.7467         estimate D2E/DX2                !
 ! R21   R(16,17)                1.4042         estimate D2E/DX2                !
 ! R22   R(16,21)                1.3875         estimate D2E/DX2                !
 ! R23   R(16,25)                1.5406         estimate D2E/DX2                !
 ! R24   R(17,18)                1.4107         estimate D2E/DX2                !
 ! R25   R(17,27)                1.4675         estimate D2E/DX2                !
 ! R26   R(18,19)                1.3876         estimate D2E/DX2                !
 ! R27   R(18,41)                1.0814         estimate D2E/DX2                !
 ! R28   R(19,20)                1.4042         estimate D2E/DX2                !
 ! R29   R(19,22)                1.5407         estimate D2E/DX2                !
 ! R30   R(20,21)                1.4107         estimate D2E/DX2                !
 ! R31   R(20,24)                1.4676         estimate D2E/DX2                !
 ! R32   R(21,40)                1.0814         estimate D2E/DX2                !
 ! R33   R(22,23)                1.5186         estimate D2E/DX2                !
 ! R34   R(22,36)                1.5488         estimate D2E/DX2                !
 ! R35   R(22,37)                1.5398         estimate D2E/DX2                !
 ! R36   R(23,24)                1.4255         estimate D2E/DX2                !
 ! R37   R(23,28)                1.3878         estimate D2E/DX2                !
 ! R38   R(24,31)                1.381          estimate D2E/DX2                !
 ! R39   R(25,26)                1.5186         estimate D2E/DX2                !
 ! R40   R(25,38)                1.5399         estimate D2E/DX2                !
 ! R41   R(25,39)                1.5488         estimate D2E/DX2                !
 ! R42   R(26,27)                1.4255         estimate D2E/DX2                !
 ! R43   R(26,32)                1.3878         estimate D2E/DX2                !
 ! R44   R(27,35)                1.3811         estimate D2E/DX2                !
 ! R45   R(28,29)                1.4007         estimate D2E/DX2                !
 ! R46   R(28,44)                1.0913         estimate D2E/DX2                !
 ! R47   R(29,30)                1.4254         estimate D2E/DX2                !
 ! R48   R(29,61)                1.443          estimate D2E/DX2                !
 ! R49   R(30,31)                1.4047         estimate D2E/DX2                !
 ! R50   R(30,60)                1.7468         estimate D2E/DX2                !
 ! R51   R(31,45)                1.0899         estimate D2E/DX2                !
 ! R52   R(32,33)                1.4007         estimate D2E/DX2                !
 ! R53   R(32,42)                1.0913         estimate D2E/DX2                !
 ! R54   R(33,34)                1.4253         estimate D2E/DX2                !
 ! R55   R(34,35)                1.4047         estimate D2E/DX2                !
 ! R56   R(35,43)                1.0898         estimate D2E/DX2                !
 ! R57   R(36,46)                1.0901         estimate D2E/DX2                !
 ! R58   R(36,47)                1.1039         estimate D2E/DX2                !
 ! R59   R(36,48)                1.0908         estimate D2E/DX2                !
 ! R60   R(37,49)                1.0972         estimate D2E/DX2                !
 ! R61   R(37,50)                1.1054         estimate D2E/DX2                !
 ! R62   R(37,51)                1.0881         estimate D2E/DX2                !
 ! R63   R(38,55)                1.088          estimate D2E/DX2                !
 ! R64   R(38,56)                1.1054         estimate D2E/DX2                !
 ! R65   R(38,57)                1.0972         estimate D2E/DX2                !
 ! R66   R(39,52)                1.09           estimate D2E/DX2                !
 ! R67   R(39,53)                1.0909         estimate D2E/DX2                !
 ! R68   R(39,54)                1.1038         estimate D2E/DX2                !
 ! R69   R(58,61)                1.0913         estimate D2E/DX2                !
 ! R70   R(60,62)                1.7643         estimate D2E/DX2                !
 ! R71   R(61,62)                1.3488         estimate D2E/DX2                !
 ! R72   R(63,64)                1.4262         estimate D2E/DX2                !
 ! R73   R(63,65)                1.37           estimate D2E/DX2                !
 ! R74   R(63,123)               1.5            estimate D2E/DX2                !
 ! R75   R(64,66)                1.339          estimate D2E/DX2                !
 ! R76   R(64,72)                1.4515         estimate D2E/DX2                !
 ! R77   R(65,70)                1.087          estimate D2E/DX2                !
 ! R78   R(65,71)                1.4334         estimate D2E/DX2                !
 ! R79   R(66,68)                1.6462         estimate D2E/DX2                !
 ! R80   R(67,68)                1.6442         estimate D2E/DX2                !
 ! R81   R(67,72)                1.3402         estimate D2E/DX2                !
 ! R82   R(69,71)                1.0859         estimate D2E/DX2                !
 ! R83   R(71,73)                1.3715         estimate D2E/DX2                !
 ! R84   R(72,73)                1.4247         estimate D2E/DX2                !
 ! R85   R(74,75)                1.3583         estimate D2E/DX2                !
 ! R86   R(74,76)                1.7517         estimate D2E/DX2                !
 ! R87   R(74,124)               1.0822         estimate D2E/DX2                !
 ! R88   R(75,94)                1.4396         estimate D2E/DX2                !
 ! R89   R(75,120)               1.0851         estimate D2E/DX2                !
 ! R90   R(76,95)                1.7593         estimate D2E/DX2                !
 ! R91   R(77,78)                1.4126         estimate D2E/DX2                !
 ! R92   R(77,82)                1.3896         estimate D2E/DX2                !
 ! R93   R(77,86)                1.5289         estimate D2E/DX2                !
 ! R94   R(78,79)                1.4008         estimate D2E/DX2                !
 ! R95   R(78,88)                1.465          estimate D2E/DX2                !
 ! R96   R(79,80)                1.3897         estimate D2E/DX2                !
 ! R97   R(79,102)               1.0879         estimate D2E/DX2                !
 ! R98   R(80,81)                1.4126         estimate D2E/DX2                !
 ! R99   R(80,83)                1.529          estimate D2E/DX2                !
 ! R100  R(81,82)                1.4008         estimate D2E/DX2                !
 ! R101  R(81,85)                1.465          estimate D2E/DX2                !
 ! R102  R(82,101)               1.0879         estimate D2E/DX2                !
 ! R103  R(83,84)                1.5294         estimate D2E/DX2                !
 ! R104  R(83,97)                1.5453         estimate D2E/DX2                !
 ! R105  R(83,98)                1.5452         estimate D2E/DX2                !
 ! R106  R(84,85)                1.421          estimate D2E/DX2                !
 ! R107  R(84,89)                1.3813         estimate D2E/DX2                !
 ! R108  R(85,92)                1.3918         estimate D2E/DX2                !
 ! R109  R(86,87)                1.5294         estimate D2E/DX2                !
 ! R110  R(86,99)                1.5453         estimate D2E/DX2                !
 ! R111  R(86,100)               1.5452         estimate D2E/DX2                !
 ! R112  R(87,88)                1.421          estimate D2E/DX2                !
 ! R113  R(87,93)                1.3813         estimate D2E/DX2                !
 ! R114  R(88,96)                1.3918         estimate D2E/DX2                !
 ! R115  R(89,90)                1.4116         estimate D2E/DX2                !
 ! R116  R(89,105)               1.0878         estimate D2E/DX2                !
 ! R117  R(90,91)                1.4206         estimate D2E/DX2                !
 ! R118  R(90,122)               1.4396         estimate D2E/DX2                !
 ! R119  R(91,92)                1.3981         estimate D2E/DX2                !
 ! R120  R(91,121)               1.7593         estimate D2E/DX2                !
 ! R121  R(92,106)               1.0865         estimate D2E/DX2                !
 ! R122  R(93,94)                1.4116         estimate D2E/DX2                !
 ! R123  R(93,103)               1.0878         estimate D2E/DX2                !
 ! R124  R(94,95)                1.4206         estimate D2E/DX2                !
 ! R125  R(95,96)                1.3981         estimate D2E/DX2                !
 ! R126  R(96,104)               1.0865         estimate D2E/DX2                !
 ! R127  R(97,107)               1.0963         estimate D2E/DX2                !
 ! R128  R(97,108)               1.0963         estimate D2E/DX2                !
 ! R129  R(97,109)               1.0946         estimate D2E/DX2                !
 ! R130  R(98,110)               1.0946         estimate D2E/DX2                !
 ! R131  R(98,111)               1.0962         estimate D2E/DX2                !
 ! R132  R(98,112)               1.0963         estimate D2E/DX2                !
 ! R133  R(99,116)               1.0963         estimate D2E/DX2                !
 ! R134  R(99,117)               1.0963         estimate D2E/DX2                !
 ! R135  R(99,118)               1.0946         estimate D2E/DX2                !
 ! R136  R(100,113)              1.0963         estimate D2E/DX2                !
 ! R137  R(100,114)              1.0946         estimate D2E/DX2                !
 ! R138  R(100,115)              1.0963         estimate D2E/DX2                !
 ! R139  R(119,122)              1.0851         estimate D2E/DX2                !
 ! R140  R(121,123)              1.7517         estimate D2E/DX2                !
 ! R141  R(122,123)              1.3583         estimate D2E/DX2                !
 ! A1    A(2,1,3)              118.094          estimate D2E/DX2                !
 ! A2    A(2,1,62)             121.6261         estimate D2E/DX2                !
 ! A3    A(3,1,62)             116.8402         estimate D2E/DX2                !
 ! A4    A(1,2,4)              126.2504         estimate D2E/DX2                !
 ! A5    A(1,2,10)             120.0658         estimate D2E/DX2                !
 ! A6    A(4,2,10)             113.6838         estimate D2E/DX2                !
 ! A7    A(1,3,8)              119.6368         estimate D2E/DX2                !
 ! A8    A(1,3,9)              121.8405         estimate D2E/DX2                !
 ! A9    A(8,3,9)              118.5227         estimate D2E/DX2                !
 ! A10   A(2,4,6)              106.1244         estimate D2E/DX2                !
 ! A11   A(6,5,10)             106.1244         estimate D2E/DX2                !
 ! A12   A(4,6,5)              100.3833         estimate D2E/DX2                !
 ! A13   A(3,9,7)              118.5234         estimate D2E/DX2                !
 ! A14   A(3,9,11)             121.8399         estimate D2E/DX2                !
 ! A15   A(7,9,11)             119.6366         estimate D2E/DX2                !
 ! A16   A(2,10,5)             113.6842         estimate D2E/DX2                !
 ! A17   A(2,10,11)            120.0656         estimate D2E/DX2                !
 ! A18   A(5,10,11)            126.2502         estimate D2E/DX2                !
 ! A19   A(9,11,10)            118.0942         estimate D2E/DX2                !
 ! A20   A(9,11,12)            122.2867         estimate D2E/DX2                !
 ! A21   A(10,11,12)           119.6191         estimate D2E/DX2                !
 ! A22   A(14,13,15)           113.1121         estimate D2E/DX2                !
 ! A23   A(14,13,73)           113.7436         estimate D2E/DX2                !
 ! A24   A(15,13,73)           132.9686         estimate D2E/DX2                !
 ! A25   A(13,14,33)           112.5514         estimate D2E/DX2                !
 ! A26   A(13,14,59)           123.3527         estimate D2E/DX2                !
 ! A27   A(33,14,59)           124.0959         estimate D2E/DX2                !
 ! A28   A(13,15,34)            91.2882         estimate D2E/DX2                !
 ! A29   A(17,16,21)           120.0117         estimate D2E/DX2                !
 ! A30   A(17,16,25)           111.2251         estimate D2E/DX2                !
 ! A31   A(21,16,25)           128.7631         estimate D2E/DX2                !
 ! A32   A(16,17,18)           121.1249         estimate D2E/DX2                !
 ! A33   A(16,17,27)           107.8786         estimate D2E/DX2                !
 ! A34   A(18,17,27)           130.9964         estimate D2E/DX2                !
 ! A35   A(17,18,19)           118.863          estimate D2E/DX2                !
 ! A36   A(17,18,41)           120.8219         estimate D2E/DX2                !
 ! A37   A(19,18,41)           120.315          estimate D2E/DX2                !
 ! A38   A(18,19,20)           120.0112         estimate D2E/DX2                !
 ! A39   A(18,19,22)           128.7654         estimate D2E/DX2                !
 ! A40   A(20,19,22)           111.2234         estimate D2E/DX2                !
 ! A41   A(19,20,21)           121.1262         estimate D2E/DX2                !
 ! A42   A(19,20,24)           107.8806         estimate D2E/DX2                !
 ! A43   A(21,20,24)           130.9932         estimate D2E/DX2                !
 ! A44   A(16,21,20)           118.8629         estimate D2E/DX2                !
 ! A45   A(16,21,40)           120.3139         estimate D2E/DX2                !
 ! A46   A(20,21,40)           120.8232         estimate D2E/DX2                !
 ! A47   A(19,22,23)           101.5507         estimate D2E/DX2                !
 ! A48   A(19,22,36)           109.5811         estimate D2E/DX2                !
 ! A49   A(19,22,37)           113.429          estimate D2E/DX2                !
 ! A50   A(23,22,36)           113.2326         estimate D2E/DX2                !
 ! A51   A(23,22,37)           108.8643         estimate D2E/DX2                !
 ! A52   A(36,22,37)           110.0126         estimate D2E/DX2                !
 ! A53   A(22,23,24)           110.0386         estimate D2E/DX2                !
 ! A54   A(22,23,28)           128.2788         estimate D2E/DX2                !
 ! A55   A(24,23,28)           121.6826         estimate D2E/DX2                !
 ! A56   A(20,24,23)           109.3067         estimate D2E/DX2                !
 ! A57   A(20,24,31)           129.8454         estimate D2E/DX2                !
 ! A58   A(23,24,31)           120.8479         estimate D2E/DX2                !
 ! A59   A(16,25,26)           101.5505         estimate D2E/DX2                !
 ! A60   A(16,25,38)           113.404          estimate D2E/DX2                !
 ! A61   A(16,25,39)           109.6075         estimate D2E/DX2                !
 ! A62   A(26,25,38)           108.8359         estimate D2E/DX2                !
 ! A63   A(26,25,39)           113.2602         estimate D2E/DX2                !
 ! A64   A(38,25,39)           110.012          estimate D2E/DX2                !
 ! A65   A(25,26,27)           110.039          estimate D2E/DX2                !
 ! A66   A(25,26,32)           128.2776         estimate D2E/DX2                !
 ! A67   A(27,26,32)           121.6834         estimate D2E/DX2                !
 ! A68   A(17,27,26)           109.3068         estimate D2E/DX2                !
 ! A69   A(17,27,35)           129.8481         estimate D2E/DX2                !
 ! A70   A(26,27,35)           120.8451         estimate D2E/DX2                !
 ! A71   A(23,28,29)           118.7038         estimate D2E/DX2                !
 ! A72   A(23,28,44)           122.0912         estimate D2E/DX2                !
 ! A73   A(29,28,44)           119.205          estimate D2E/DX2                !
 ! A74   A(28,29,30)           118.7192         estimate D2E/DX2                !
 ! A75   A(28,29,61)           128.613          estimate D2E/DX2                !
 ! A76   A(30,29,61)           112.6678         estimate D2E/DX2                !
 ! A77   A(29,30,31)           122.9302         estimate D2E/DX2                !
 ! A78   A(29,30,60)           110.3802         estimate D2E/DX2                !
 ! A79   A(31,30,60)           126.6896         estimate D2E/DX2                !
 ! A80   A(24,31,30)           117.1163         estimate D2E/DX2                !
 ! A81   A(24,31,45)           121.049          estimate D2E/DX2                !
 ! A82   A(30,31,45)           121.8347         estimate D2E/DX2                !
 ! A83   A(26,32,33)           118.7044         estimate D2E/DX2                !
 ! A84   A(26,32,42)           122.0907         estimate D2E/DX2                !
 ! A85   A(33,32,42)           119.2049         estimate D2E/DX2                !
 ! A86   A(14,33,32)           128.6141         estimate D2E/DX2                !
 ! A87   A(14,33,34)           112.6658         estimate D2E/DX2                !
 ! A88   A(32,33,34)           118.7201         estimate D2E/DX2                !
 ! A89   A(15,34,33)           110.3825         estimate D2E/DX2                !
 ! A90   A(15,34,35)           126.6894         estimate D2E/DX2                !
 ! A91   A(33,34,35)           122.9281         estimate D2E/DX2                !
 ! A92   A(27,35,34)           117.1189         estimate D2E/DX2                !
 ! A93   A(27,35,43)           121.0492         estimate D2E/DX2                !
 ! A94   A(34,35,43)           121.8319         estimate D2E/DX2                !
 ! A95   A(22,36,46)           112.6351         estimate D2E/DX2                !
 ! A96   A(22,36,47)           108.9249         estimate D2E/DX2                !
 ! A97   A(22,36,48)           111.2044         estimate D2E/DX2                !
 ! A98   A(46,36,47)           108.0228         estimate D2E/DX2                !
 ! A99   A(46,36,48)           105.567          estimate D2E/DX2                !
 ! A100  A(47,36,48)           110.4129         estimate D2E/DX2                !
 ! A101  A(22,37,49)           111.1905         estimate D2E/DX2                !
 ! A102  A(22,37,50)           112.8897         estimate D2E/DX2                !
 ! A103  A(22,37,51)           108.1222         estimate D2E/DX2                !
 ! A104  A(49,37,50)           106.3994         estimate D2E/DX2                !
 ! A105  A(49,37,51)           110.1491         estimate D2E/DX2                !
 ! A106  A(50,37,51)           108.0412         estimate D2E/DX2                !
 ! A107  A(25,38,55)           108.124          estimate D2E/DX2                !
 ! A108  A(25,38,56)           112.8947         estimate D2E/DX2                !
 ! A109  A(25,38,57)           111.1942         estimate D2E/DX2                !
 ! A110  A(55,38,56)           108.0419         estimate D2E/DX2                !
 ! A111  A(55,38,57)           110.1441         estimate D2E/DX2                !
 ! A112  A(56,38,57)           106.3926         estimate D2E/DX2                !
 ! A113  A(25,39,52)           112.6294         estimate D2E/DX2                !
 ! A114  A(25,39,53)           111.2042         estimate D2E/DX2                !
 ! A115  A(25,39,54)           108.9195         estimate D2E/DX2                !
 ! A116  A(52,39,53)           105.572          estimate D2E/DX2                !
 ! A117  A(52,39,54)           108.0208         estimate D2E/DX2                !
 ! A118  A(53,39,54)           110.4216         estimate D2E/DX2                !
 ! A119  A(30,60,62)            91.2889         estimate D2E/DX2                !
 ! A120  A(29,61,58)           124.0975         estimate D2E/DX2                !
 ! A121  A(29,61,62)           112.5504         estimate D2E/DX2                !
 ! A122  A(58,61,62)           123.3521         estimate D2E/DX2                !
 ! A123  A(1,62,60)            127.3995         estimate D2E/DX2                !
 ! A124  A(1,62,61)            116.7186         estimate D2E/DX2                !
 ! A125  A(60,62,61)           113.1127         estimate D2E/DX2                !
 ! A126  A(64,63,65)           118.0921         estimate D2E/DX2                !
 ! A127  A(64,63,123)          119.5349         estimate D2E/DX2                !
 ! A128  A(65,63,123)          122.373          estimate D2E/DX2                !
 ! A129  A(63,64,66)           126.2567         estimate D2E/DX2                !
 ! A130  A(63,64,72)           120.1183         estimate D2E/DX2                !
 ! A131  A(66,64,72)           113.625          estimate D2E/DX2                !
 ! A132  A(63,65,70)           119.6333         estimate D2E/DX2                !
 ! A133  A(63,65,71)           121.7898         estimate D2E/DX2                !
 ! A134  A(70,65,71)           118.5768         estimate D2E/DX2                !
 ! A135  A(64,66,68)           106.1544         estimate D2E/DX2                !
 ! A136  A(68,67,72)           106.0943         estimate D2E/DX2                !
 ! A137  A(66,68,67)           100.3833         estimate D2E/DX2                !
 ! A138  A(65,71,69)           118.4693         estimate D2E/DX2                !
 ! A139  A(65,71,73)           121.8906         estimate D2E/DX2                !
 ! A140  A(69,71,73)           119.6402         estimate D2E/DX2                !
 ! A141  A(64,72,67)           113.743          estimate D2E/DX2                !
 ! A142  A(64,72,73)           120.0131         estimate D2E/DX2                !
 ! A143  A(67,72,73)           126.244          estimate D2E/DX2                !
 ! A144  A(13,73,71)           120.4432         estimate D2E/DX2                !
 ! A145  A(13,73,72)           121.3791         estimate D2E/DX2                !
 ! A146  A(71,73,72)           118.0961         estimate D2E/DX2                !
 ! A147  A(75,74,76)           113.0704         estimate D2E/DX2                !
 ! A148  A(75,74,124)          127.7178         estimate D2E/DX2                !
 ! A149  A(76,74,124)          119.2119         estimate D2E/DX2                !
 ! A150  A(74,75,94)           113.1625         estimate D2E/DX2                !
 ! A151  A(74,75,120)          123.4466         estimate D2E/DX2                !
 ! A152  A(94,75,120)          123.3909         estimate D2E/DX2                !
 ! A153  A(74,76,95)            90.9694         estimate D2E/DX2                !
 ! A154  A(78,77,82)           120.7282         estimate D2E/DX2                !
 ! A155  A(78,77,86)           110.9557         estimate D2E/DX2                !
 ! A156  A(82,77,86)           128.3161         estimate D2E/DX2                !
 ! A157  A(77,78,79)           121.0052         estimate D2E/DX2                !
 ! A158  A(77,78,88)           108.5913         estimate D2E/DX2                !
 ! A159  A(79,78,88)           130.4035         estimate D2E/DX2                !
 ! A160  A(78,79,80)           118.2662         estimate D2E/DX2                !
 ! A161  A(78,79,102)          120.7062         estimate D2E/DX2                !
 ! A162  A(80,79,102)          121.0276         estimate D2E/DX2                !
 ! A163  A(79,80,81)           120.7281         estimate D2E/DX2                !
 ! A164  A(79,80,83)           128.3173         estimate D2E/DX2                !
 ! A165  A(81,80,83)           110.9546         estimate D2E/DX2                !
 ! A166  A(80,81,82)           121.0063         estimate D2E/DX2                !
 ! A167  A(80,81,85)           108.5936         estimate D2E/DX2                !
 ! A168  A(82,81,85)           130.4002         estimate D2E/DX2                !
 ! A169  A(77,82,81)           118.266          estimate D2E/DX2                !
 ! A170  A(77,82,101)          121.0277         estimate D2E/DX2                !
 ! A171  A(81,82,101)          120.7063         estimate D2E/DX2                !
 ! A172  A(80,83,84)           101.35           estimate D2E/DX2                !
 ! A173  A(80,83,97)           111.3045         estimate D2E/DX2                !
 ! A174  A(80,83,98)           111.3293         estimate D2E/DX2                !
 ! A175  A(84,83,97)           111.3441         estimate D2E/DX2                !
 ! A176  A(84,83,98)           111.3729         estimate D2E/DX2                !
 ! A177  A(97,83,98)           109.9164         estimate D2E/DX2                !
 ! A178  A(83,84,85)           110.6247         estimate D2E/DX2                !
 ! A179  A(83,84,89)           128.44           estimate D2E/DX2                !
 ! A180  A(85,84,89)           120.9353         estimate D2E/DX2                !
 ! A181  A(81,85,84)           108.4771         estimate D2E/DX2                !
 ! A182  A(81,85,92)           130.2482         estimate D2E/DX2                !
 ! A183  A(84,85,92)           121.2747         estimate D2E/DX2                !
 ! A184  A(77,86,87)           101.3504         estimate D2E/DX2                !
 ! A185  A(77,86,99)           111.3039         estimate D2E/DX2                !
 ! A186  A(77,86,100)          111.3307         estimate D2E/DX2                !
 ! A187  A(87,86,99)           111.345          estimate D2E/DX2                !
 ! A188  A(87,86,100)          111.3724         estimate D2E/DX2                !
 ! A189  A(99,86,100)          109.915          estimate D2E/DX2                !
 ! A190  A(86,87,88)           110.6244         estimate D2E/DX2                !
 ! A191  A(86,87,93)           128.4388         estimate D2E/DX2                !
 ! A192  A(88,87,93)           120.9368         estimate D2E/DX2                !
 ! A193  A(78,88,87)           108.4782         estimate D2E/DX2                !
 ! A194  A(78,88,96)           130.2498         estimate D2E/DX2                !
 ! A195  A(87,88,96)           121.272          estimate D2E/DX2                !
 ! A196  A(84,89,90)           119.0052         estimate D2E/DX2                !
 ! A197  A(84,89,105)          121.346          estimate D2E/DX2                !
 ! A198  A(90,89,105)          119.6488         estimate D2E/DX2                !
 ! A199  A(89,90,91)           119.1597         estimate D2E/DX2                !
 ! A200  A(89,90,122)          128.9862         estimate D2E/DX2                !
 ! A201  A(91,90,122)          111.8541         estimate D2E/DX2                !
 ! A202  A(90,91,92)           122.1917         estimate D2E/DX2                !
 ! A203  A(90,91,121)          110.9439         estimate D2E/DX2                !
 ! A204  A(92,91,121)          126.8644         estimate D2E/DX2                !
 ! A205  A(85,92,91)           117.4334         estimate D2E/DX2                !
 ! A206  A(85,92,106)          121.4782         estimate D2E/DX2                !
 ! A207  A(91,92,106)          121.0885         estimate D2E/DX2                !
 ! A208  A(87,93,94)           119.0058         estimate D2E/DX2                !
 ! A209  A(87,93,103)          121.3469         estimate D2E/DX2                !
 ! A210  A(94,93,103)          119.6474         estimate D2E/DX2                !
 ! A211  A(75,94,93)           128.9871         estimate D2E/DX2                !
 ! A212  A(75,94,95)           111.8539         estimate D2E/DX2                !
 ! A213  A(93,94,95)           119.159          estimate D2E/DX2                !
 ! A214  A(76,95,94)           110.9438         estimate D2E/DX2                !
 ! A215  A(76,95,96)           126.8649         estimate D2E/DX2                !
 ! A216  A(94,95,96)           122.1914         estimate D2E/DX2                !
 ! A217  A(88,96,95)           117.4352         estimate D2E/DX2                !
 ! A218  A(88,96,104)          121.4766         estimate D2E/DX2                !
 ! A219  A(95,96,104)          121.0882         estimate D2E/DX2                !
 ! A220  A(83,97,107)          110.7184         estimate D2E/DX2                !
 ! A221  A(83,97,108)          110.6952         estimate D2E/DX2                !
 ! A222  A(83,97,109)          111.1032         estimate D2E/DX2                !
 ! A223  A(107,97,108)         107.8345         estimate D2E/DX2                !
 ! A224  A(107,97,109)         108.1895         estimate D2E/DX2                !
 ! A225  A(108,97,109)         108.1828         estimate D2E/DX2                !
 ! A226  A(83,98,110)          111.1006         estimate D2E/DX2                !
 ! A227  A(83,98,111)          110.689          estimate D2E/DX2                !
 ! A228  A(83,98,112)          110.7139         estimate D2E/DX2                !
 ! A229  A(110,98,111)         108.1912         estimate D2E/DX2                !
 ! A230  A(110,98,112)         108.1951         estimate D2E/DX2                !
 ! A231  A(111,98,112)         107.8343         estimate D2E/DX2                !
 ! A232  A(86,99,116)          110.7166         estimate D2E/DX2                !
 ! A233  A(86,99,117)          110.695          estimate D2E/DX2                !
 ! A234  A(86,99,118)          111.1019         estimate D2E/DX2                !
 ! A235  A(116,99,117)         107.8354         estimate D2E/DX2                !
 ! A236  A(116,99,118)         108.1908         estimate D2E/DX2                !
 ! A237  A(117,99,118)         108.184          estimate D2E/DX2                !
 ! A238  A(86,100,113)         110.7136         estimate D2E/DX2                !
 ! A239  A(86,100,114)         111.1016         estimate D2E/DX2                !
 ! A240  A(86,100,115)         110.6899         estimate D2E/DX2                !
 ! A241  A(113,100,114)        108.1941         estimate D2E/DX2                !
 ! A242  A(113,100,115)        107.8346         estimate D2E/DX2                !
 ! A243  A(114,100,115)        108.1904         estimate D2E/DX2                !
 ! A244  A(91,121,123)          90.9687         estimate D2E/DX2                !
 ! A245  A(90,122,119)         123.3909         estimate D2E/DX2                !
 ! A246  A(90,122,123)         113.1625         estimate D2E/DX2                !
 ! A247  A(119,122,123)        123.4466         estimate D2E/DX2                !
 ! A248  A(63,123,121)         121.6978         estimate D2E/DX2                !
 ! A249  A(63,123,122)         125.2277         estimate D2E/DX2                !
 ! A250  A(121,123,122)        113.0709         estimate D2E/DX2                !
 ! D1    D(3,1,2,4)           -180.0            estimate D2E/DX2                !
 ! D2    D(3,1,2,10)             0.0            estimate D2E/DX2                !
 ! D3    D(62,1,2,4)            21.5941         estimate D2E/DX2                !
 ! D4    D(62,1,2,10)         -158.4059         estimate D2E/DX2                !
 ! D5    D(2,1,3,8)            180.0            estimate D2E/DX2                !
 ! D6    D(2,1,3,9)              0.0            estimate D2E/DX2                !
 ! D7    D(62,1,3,8)           -20.5612         estimate D2E/DX2                !
 ! D8    D(62,1,3,9)           159.4388         estimate D2E/DX2                !
 ! D9    D(2,1,62,60)          -16.9901         estimate D2E/DX2                !
 ! D10   D(2,1,62,61)         -176.7128         estimate D2E/DX2                !
 ! D11   D(3,1,62,60)         -175.6523         estimate D2E/DX2                !
 ! D12   D(3,1,62,61)           24.625          estimate D2E/DX2                !
 ! D13   D(1,2,4,6)           -180.0            estimate D2E/DX2                !
 ! D14   D(10,2,4,6)             0.0            estimate D2E/DX2                !
 ! D15   D(1,2,10,5)           180.0            estimate D2E/DX2                !
 ! D16   D(1,2,10,11)            0.0            estimate D2E/DX2                !
 ! D17   D(4,2,10,5)             0.0            estimate D2E/DX2                !
 ! D18   D(4,2,10,11)         -180.0            estimate D2E/DX2                !
 ! D19   D(1,3,9,7)            180.0            estimate D2E/DX2                !
 ! D20   D(1,3,9,11)             0.0            estimate D2E/DX2                !
 ! D21   D(8,3,9,7)              0.0            estimate D2E/DX2                !
 ! D22   D(8,3,9,11)           180.0            estimate D2E/DX2                !
 ! D23   D(2,4,6,5)              0.0            estimate D2E/DX2                !
 ! D24   D(10,5,6,4)             0.0            estimate D2E/DX2                !
 ! D25   D(6,5,10,2)             0.0            estimate D2E/DX2                !
 ! D26   D(6,5,10,11)          180.0            estimate D2E/DX2                !
 ! D27   D(3,9,11,10)            0.0            estimate D2E/DX2                !
 ! D28   D(3,9,11,12)          180.0            estimate D2E/DX2                !
 ! D29   D(7,9,11,10)         -180.0            estimate D2E/DX2                !
 ! D30   D(7,9,11,12)            0.0            estimate D2E/DX2                !
 ! D31   D(2,10,11,9)            0.0            estimate D2E/DX2                !
 ! D32   D(2,10,11,12)        -180.0            estimate D2E/DX2                !
 ! D33   D(5,10,11,9)         -180.0            estimate D2E/DX2                !
 ! D34   D(5,10,11,12)           0.0            estimate D2E/DX2                !
 ! D35   D(15,13,14,33)          0.0024         estimate D2E/DX2                !
 ! D36   D(15,13,14,59)       -179.9959         estimate D2E/DX2                !
 ! D37   D(73,13,14,33)        175.8216         estimate D2E/DX2                !
 ! D38   D(73,13,14,59)         -4.1767         estimate D2E/DX2                !
 ! D39   D(14,13,15,34)         -0.0111         estimate D2E/DX2                !
 ! D40   D(73,13,15,34)       -174.7785         estimate D2E/DX2                !
 ! D41   D(14,13,73,71)        -28.9258         estimate D2E/DX2                !
 ! D42   D(14,13,73,72)        147.7269         estimate D2E/DX2                !
 ! D43   D(15,13,73,71)        145.8165         estimate D2E/DX2                !
 ! D44   D(15,13,73,72)        -37.5308         estimate D2E/DX2                !
 ! D45   D(13,14,33,32)       -179.9963         estimate D2E/DX2                !
 ! D46   D(13,14,33,34)          0.0105         estimate D2E/DX2                !
 ! D47   D(59,14,33,32)          0.002          estimate D2E/DX2                !
 ! D48   D(59,14,33,34)       -179.9912         estimate D2E/DX2                !
 ! D49   D(13,15,34,33)          0.0165         estimate D2E/DX2                !
 ! D50   D(13,15,34,35)        179.9915         estimate D2E/DX2                !
 ! D51   D(21,16,17,18)          0.0077         estimate D2E/DX2                !
 ! D52   D(21,16,17,27)       -179.9932         estimate D2E/DX2                !
 ! D53   D(25,16,17,18)       -179.9864         estimate D2E/DX2                !
 ! D54   D(25,16,17,27)          0.0127         estimate D2E/DX2                !
 ! D55   D(17,16,21,20)         -0.0098         estimate D2E/DX2                !
 ! D56   D(17,16,21,40)        179.9782         estimate D2E/DX2                !
 ! D57   D(25,16,21,20)        179.9832         estimate D2E/DX2                !
 ! D58   D(25,16,21,40)         -0.0289         estimate D2E/DX2                !
 ! D59   D(17,16,25,26)         -0.0075         estimate D2E/DX2                !
 ! D60   D(17,16,25,38)       -116.5929         estimate D2E/DX2                !
 ! D61   D(17,16,25,39)        120.0378         estimate D2E/DX2                !
 ! D62   D(21,16,25,26)        179.999          estimate D2E/DX2                !
 ! D63   D(21,16,25,38)         63.4137         estimate D2E/DX2                !
 ! D64   D(21,16,25,39)        -59.9557         estimate D2E/DX2                !
 ! D65   D(16,17,18,19)          0.0028         estimate D2E/DX2                !
 ! D66   D(16,17,18,41)       -179.99           estimate D2E/DX2                !
 ! D67   D(27,17,18,19)       -179.9962         estimate D2E/DX2                !
 ! D68   D(27,17,18,41)          0.0111         estimate D2E/DX2                !
 ! D69   D(16,17,27,26)         -0.013          estimate D2E/DX2                !
 ! D70   D(16,17,27,35)        179.985          estimate D2E/DX2                !
 ! D71   D(18,17,27,26)        179.986          estimate D2E/DX2                !
 ! D72   D(18,17,27,35)         -0.016          estimate D2E/DX2                !
 ! D73   D(17,18,19,20)         -0.0107         estimate D2E/DX2                !
 ! D74   D(17,18,19,22)        179.984          estimate D2E/DX2                !
 ! D75   D(41,18,19,20)        179.982          estimate D2E/DX2                !
 ! D76   D(41,18,19,22)         -0.0233         estimate D2E/DX2                !
 ! D77   D(18,19,20,21)          0.0086         estimate D2E/DX2                !
 ! D78   D(18,19,20,24)       -179.9979         estimate D2E/DX2                !
 ! D79   D(22,19,20,21)       -179.9869         estimate D2E/DX2                !
 ! D80   D(22,19,20,24)          0.0066         estimate D2E/DX2                !
 ! D81   D(18,19,22,23)        179.9935         estimate D2E/DX2                !
 ! D82   D(18,19,22,36)         59.9916         estimate D2E/DX2                !
 ! D83   D(18,19,22,37)        -63.3765         estimate D2E/DX2                !
 ! D84   D(20,19,22,23)         -0.0114         estimate D2E/DX2                !
 ! D85   D(20,19,22,36)       -120.0133         estimate D2E/DX2                !
 ! D86   D(20,19,22,37)        116.6186         estimate D2E/DX2                !
 ! D87   D(19,20,21,16)          0.0018         estimate D2E/DX2                !
 ! D88   D(19,20,21,40)       -179.9861         estimate D2E/DX2                !
 ! D89   D(24,20,21,16)       -179.99           estimate D2E/DX2                !
 ! D90   D(24,20,21,40)          0.0221         estimate D2E/DX2                !
 ! D91   D(19,20,24,23)          0.0016         estimate D2E/DX2                !
 ! D92   D(19,20,24,31)        179.984          estimate D2E/DX2                !
 ! D93   D(21,20,24,23)        179.9942         estimate D2E/DX2                !
 ! D94   D(21,20,24,31)         -0.0233         estimate D2E/DX2                !
 ! D95   D(19,22,23,24)          0.0122         estimate D2E/DX2                !
 ! D96   D(19,22,23,28)       -179.9964         estimate D2E/DX2                !
 ! D97   D(36,22,23,24)        117.3983         estimate D2E/DX2                !
 ! D98   D(36,22,23,28)        -62.6102         estimate D2E/DX2                !
 ! D99   D(37,22,23,24)       -119.9017         estimate D2E/DX2                !
 ! D100  D(37,22,23,28)         60.0897         estimate D2E/DX2                !
 ! D101  D(19,22,36,46)        -63.5641         estimate D2E/DX2                !
 ! D102  D(19,22,36,47)        176.6119         estimate D2E/DX2                !
 ! D103  D(19,22,36,48)         54.7072         estimate D2E/DX2                !
 ! D104  D(23,22,36,46)       -176.1443         estimate D2E/DX2                !
 ! D105  D(23,22,36,47)         64.0317         estimate D2E/DX2                !
 ! D106  D(23,22,36,48)        -57.873          estimate D2E/DX2                !
 ! D107  D(37,22,36,46)         61.7947         estimate D2E/DX2                !
 ! D108  D(37,22,36,47)        -58.0293         estimate D2E/DX2                !
 ! D109  D(37,22,36,48)       -179.9339         estimate D2E/DX2                !
 ! D110  D(19,22,37,49)        -56.9047         estimate D2E/DX2                !
 ! D111  D(19,22,37,50)       -176.4012         estimate D2E/DX2                !
 ! D112  D(19,22,37,51)         64.1335         estimate D2E/DX2                !
 ! D113  D(23,22,37,49)         55.3471         estimate D2E/DX2                !
 ! D114  D(23,22,37,50)        -64.1494         estimate D2E/DX2                !
 ! D115  D(23,22,37,51)        176.3852         estimate D2E/DX2                !
 ! D116  D(36,22,37,49)        179.9642         estimate D2E/DX2                !
 ! D117  D(36,22,37,50)         60.4677         estimate D2E/DX2                !
 ! D118  D(36,22,37,51)        -58.9977         estimate D2E/DX2                !
 ! D119  D(22,23,24,20)         -0.0092         estimate D2E/DX2                !
 ! D120  D(22,23,24,31)       -179.9935         estimate D2E/DX2                !
 ! D121  D(28,23,24,20)        179.9987         estimate D2E/DX2                !
 ! D122  D(28,23,24,31)          0.0144         estimate D2E/DX2                !
 ! D123  D(22,23,28,29)       -179.9934         estimate D2E/DX2                !
 ! D124  D(22,23,28,44)         -0.0022         estimate D2E/DX2                !
 ! D125  D(24,23,28,29)         -0.0029         estimate D2E/DX2                !
 ! D126  D(24,23,28,44)        179.9884         estimate D2E/DX2                !
 ! D127  D(20,24,31,30)       -179.9953         estimate D2E/DX2                !
 ! D128  D(20,24,31,45)         -0.0032         estimate D2E/DX2                !
 ! D129  D(23,24,31,30)         -0.0146         estimate D2E/DX2                !
 ! D130  D(23,24,31,45)        179.9775         estimate D2E/DX2                !
 ! D131  D(16,25,26,27)         -0.0007         estimate D2E/DX2                !
 ! D132  D(16,25,26,32)        179.9915         estimate D2E/DX2                !
 ! D133  D(38,25,26,27)        119.8722         estimate D2E/DX2                !
 ! D134  D(38,25,26,32)        -60.1356         estimate D2E/DX2                !
 ! D135  D(39,25,26,27)       -117.4304         estimate D2E/DX2                !
 ! D136  D(39,25,26,32)         62.5618         estimate D2E/DX2                !
 ! D137  D(16,25,38,55)        -64.105          estimate D2E/DX2                !
 ! D138  D(16,25,38,56)        176.4244         estimate D2E/DX2                !
 ! D139  D(16,25,38,57)         56.9305         estimate D2E/DX2                !
 ! D140  D(26,25,38,55)       -176.3256         estimate D2E/DX2                !
 ! D141  D(26,25,38,56)         64.2038         estimate D2E/DX2                !
 ! D142  D(26,25,38,57)        -55.2901         estimate D2E/DX2                !
 ! D143  D(39,25,38,55)         59.0422         estimate D2E/DX2                !
 ! D144  D(39,25,38,56)        -60.4284         estimate D2E/DX2                !
 ! D145  D(39,25,38,57)       -179.9223         estimate D2E/DX2                !
 ! D146  D(16,25,39,52)         63.5905         estimate D2E/DX2                !
 ! D147  D(16,25,39,53)        -54.6833         estimate D2E/DX2                !
 ! D148  D(16,25,39,54)       -176.5952         estimate D2E/DX2                !
 ! D149  D(26,25,39,52)        176.2023         estimate D2E/DX2                !
 ! D150  D(26,25,39,53)         57.9285         estimate D2E/DX2                !
 ! D151  D(26,25,39,54)        -63.9834         estimate D2E/DX2                !
 ! D152  D(38,25,39,52)        -61.7545         estimate D2E/DX2                !
 ! D153  D(38,25,39,53)        179.9716         estimate D2E/DX2                !
 ! D154  D(38,25,39,54)         58.0597         estimate D2E/DX2                !
 ! D155  D(25,26,27,17)          0.0083         estimate D2E/DX2                !
 ! D156  D(25,26,27,35)       -179.9899         estimate D2E/DX2                !
 ! D157  D(32,26,27,17)       -179.9845         estimate D2E/DX2                !
 ! D158  D(32,26,27,35)          0.0173         estimate D2E/DX2                !
 ! D159  D(25,26,32,33)       -179.9977         estimate D2E/DX2                !
 ! D160  D(25,26,32,42)          0.0052         estimate D2E/DX2                !
 ! D161  D(27,26,32,33)         -0.0063         estimate D2E/DX2                !
 ! D162  D(27,26,32,42)        179.9966         estimate D2E/DX2                !
 ! D163  D(17,27,35,34)        179.9892         estimate D2E/DX2                !
 ! D164  D(17,27,35,43)         -0.0166         estimate D2E/DX2                !
 ! D165  D(26,27,35,34)         -0.013          estimate D2E/DX2                !
 ! D166  D(26,27,35,43)        179.9812         estimate D2E/DX2                !
 ! D167  D(23,28,29,30)         -0.0072         estimate D2E/DX2                !
 ! D168  D(23,28,29,61)        179.9847         estimate D2E/DX2                !
 ! D169  D(44,28,29,30)       -179.9988         estimate D2E/DX2                !
 ! D170  D(44,28,29,61)         -0.0068         estimate D2E/DX2                !
 ! D171  D(28,29,30,31)          0.0067         estimate D2E/DX2                !
 ! D172  D(28,29,30,60)        179.9972         estimate D2E/DX2                !
 ! D173  D(61,29,30,31)       -179.9865         estimate D2E/DX2                !
 ! D174  D(61,29,30,60)          0.004          estimate D2E/DX2                !
 ! D175  D(28,29,61,58)          0.0057         estimate D2E/DX2                !
 ! D176  D(28,29,61,62)        179.9913         estimate D2E/DX2                !
 ! D177  D(30,29,61,58)        179.998          estimate D2E/DX2                !
 ! D178  D(30,29,61,62)         -0.0163         estimate D2E/DX2                !
 ! D179  D(29,30,31,24)          0.0043         estimate D2E/DX2                !
 ! D180  D(29,30,31,45)       -179.9877         estimate D2E/DX2                !
 ! D181  D(60,30,31,24)       -179.9845         estimate D2E/DX2                !
 ! D182  D(60,30,31,45)          0.0235         estimate D2E/DX2                !
 ! D183  D(29,30,60,62)          0.0064         estimate D2E/DX2                !
 ! D184  D(31,30,60,62)        179.9964         estimate D2E/DX2                !
 ! D185  D(26,32,33,14)        179.9997         estimate D2E/DX2                !
 ! D186  D(26,32,33,34)         -0.0075         estimate D2E/DX2                !
 ! D187  D(42,32,33,14)         -0.0031         estimate D2E/DX2                !
 ! D188  D(42,32,33,34)        179.9897         estimate D2E/DX2                !
 ! D189  D(14,33,34,15)         -0.0185         estimate D2E/DX2                !
 ! D190  D(14,33,34,35)       -179.9945         estimate D2E/DX2                !
 ! D191  D(32,33,34,15)        179.9876         estimate D2E/DX2                !
 ! D192  D(32,33,34,35)          0.0116         estimate D2E/DX2                !
 ! D193  D(15,34,35,27)       -179.9731         estimate D2E/DX2                !
 ! D194  D(15,34,35,43)          0.0327         estimate D2E/DX2                !
 ! D195  D(33,34,35,27)         -0.0011         estimate D2E/DX2                !
 ! D196  D(33,34,35,43)       -179.9953         estimate D2E/DX2                !
 ! D197  D(30,60,62,1)        -160.3478         estimate D2E/DX2                !
 ! D198  D(30,60,62,61)         -0.0162         estimate D2E/DX2                !
 ! D199  D(29,61,62,1)         162.603          estimate D2E/DX2                !
 ! D200  D(29,61,62,60)          0.0212         estimate D2E/DX2                !
 ! D201  D(58,61,62,1)         -17.4112         estimate D2E/DX2                !
 ! D202  D(58,61,62,60)       -179.993          estimate D2E/DX2                !
 ! D203  D(65,63,64,66)       -180.0            estimate D2E/DX2                !
 ! D204  D(65,63,64,72)          0.0            estimate D2E/DX2                !
 ! D205  D(123,63,64,66)         0.0459         estimate D2E/DX2                !
 ! D206  D(123,63,64,72)      -179.9541         estimate D2E/DX2                !
 ! D207  D(64,63,65,70)        180.0            estimate D2E/DX2                !
 ! D208  D(64,63,65,71)          0.0            estimate D2E/DX2                !
 ! D209  D(123,63,65,70)        -0.0472         estimate D2E/DX2                !
 ! D210  D(123,63,65,71)       179.9528         estimate D2E/DX2                !
 ! D211  D(64,63,123,121)       -0.3088         estimate D2E/DX2                !
 ! D212  D(64,63,123,122)     -179.5616         estimate D2E/DX2                !
 ! D213  D(65,63,123,121)      179.7391         estimate D2E/DX2                !
 ! D214  D(65,63,123,122)        0.4863         estimate D2E/DX2                !
 ! D215  D(63,64,66,68)       -180.0            estimate D2E/DX2                !
 ! D216  D(72,64,66,68)          0.0            estimate D2E/DX2                !
 ! D217  D(63,64,72,67)        180.0            estimate D2E/DX2                !
 ! D218  D(63,64,72,73)          0.0            estimate D2E/DX2                !
 ! D219  D(66,64,72,67)          0.0            estimate D2E/DX2                !
 ! D220  D(66,64,72,73)       -180.0            estimate D2E/DX2                !
 ! D221  D(63,65,71,69)       -180.0            estimate D2E/DX2                !
 ! D222  D(63,65,71,73)          0.0            estimate D2E/DX2                !
 ! D223  D(70,65,71,69)          0.0            estimate D2E/DX2                !
 ! D224  D(70,65,71,73)        180.0            estimate D2E/DX2                !
 ! D225  D(64,66,68,67)          0.0            estimate D2E/DX2                !
 ! D226  D(72,67,68,66)          0.0            estimate D2E/DX2                !
 ! D227  D(68,67,72,64)          0.0            estimate D2E/DX2                !
 ! D228  D(68,67,72,73)        180.0            estimate D2E/DX2                !
 ! D229  D(65,71,73,13)        176.7607         estimate D2E/DX2                !
 ! D230  D(65,71,73,72)          0.0            estimate D2E/DX2                !
 ! D231  D(69,71,73,13)         -3.2393         estimate D2E/DX2                !
 ! D232  D(69,71,73,72)        180.0            estimate D2E/DX2                !
 ! D233  D(64,72,73,13)       -176.7288         estimate D2E/DX2                !
 ! D234  D(64,72,73,71)          0.0            estimate D2E/DX2                !
 ! D235  D(67,72,73,13)          3.2712         estimate D2E/DX2                !
 ! D236  D(67,72,73,71)        180.0            estimate D2E/DX2                !
 ! D237  D(76,74,75,94)         -0.0024         estimate D2E/DX2                !
 ! D238  D(76,74,75,120)       179.9959         estimate D2E/DX2                !
 ! D239  D(124,74,75,94)      -179.9948         estimate D2E/DX2                !
 ! D240  D(124,74,75,120)        0.0035         estimate D2E/DX2                !
 ! D241  D(75,74,76,95)          0.0111         estimate D2E/DX2                !
 ! D242  D(124,74,76,95)      -179.9958         estimate D2E/DX2                !
 ! D243  D(74,75,94,93)        179.9963         estimate D2E/DX2                !
 ! D244  D(74,75,94,95)         -0.0105         estimate D2E/DX2                !
 ! D245  D(120,75,94,93)        -0.002          estimate D2E/DX2                !
 ! D246  D(120,75,94,95)       179.9912         estimate D2E/DX2                !
 ! D247  D(74,76,95,94)         -0.0167         estimate D2E/DX2                !
 ! D248  D(74,76,95,96)       -179.9914         estimate D2E/DX2                !
 ! D249  D(82,77,78,79)         -0.0077         estimate D2E/DX2                !
 ! D250  D(82,77,78,88)        179.9931         estimate D2E/DX2                !
 ! D251  D(86,77,78,79)        179.9863         estimate D2E/DX2                !
 ! D252  D(86,77,78,88)         -0.0128         estimate D2E/DX2                !
 ! D253  D(78,77,82,81)          0.0098         estimate D2E/DX2                !
 ! D254  D(78,77,82,101)      -179.9781         estimate D2E/DX2                !
 ! D255  D(86,77,82,81)       -179.9831         estimate D2E/DX2                !
 ! D256  D(86,77,82,101)         0.029          estimate D2E/DX2                !
 ! D257  D(78,77,86,87)          0.0075         estimate D2E/DX2                !
 ! D258  D(78,77,86,99)        118.4809         estimate D2E/DX2                !
 ! D259  D(78,77,86,100)      -118.5096         estimate D2E/DX2                !
 ! D260  D(82,77,86,87)       -179.999          estimate D2E/DX2                !
 ! D261  D(82,77,86,99)        -61.5256         estimate D2E/DX2                !
 ! D262  D(82,77,86,100)        61.4839         estimate D2E/DX2                !
 ! D263  D(77,78,79,80)         -0.0028         estimate D2E/DX2                !
 ! D264  D(77,78,79,102)       179.99           estimate D2E/DX2                !
 ! D265  D(88,78,79,80)        179.9962         estimate D2E/DX2                !
 ! D266  D(88,78,79,102)        -0.011          estimate D2E/DX2                !
 ! D267  D(77,78,88,87)          0.013          estimate D2E/DX2                !
 ! D268  D(77,78,88,96)       -179.985          estimate D2E/DX2                !
 ! D269  D(79,78,88,87)       -179.986          estimate D2E/DX2                !
[...]
 Alpha virt. eigenvalues --    0.25670   0.25973   0.26016   0.26225   0.26426
 Alpha virt. eigenvalues --    0.26751   0.27514   0.27609   0.28120   0.28841
 Alpha virt. eigenvalues --    0.28965   0.28986   0.29535   0.29582   0.29585
 Alpha virt. eigenvalues --    0.29609   0.29964   0.30126   0.30404   0.30684
 Alpha virt. eigenvalues --    0.31042   0.31451   0.31795   0.31932   0.32220
 Alpha virt. eigenvalues --    0.32703   0.32990   0.33821   0.34299   0.34872
 Alpha virt. eigenvalues --    0.35160   0.35888   0.36236   0.36476   0.36563
 Alpha virt. eigenvalues --    0.37641   0.38007   0.38491   0.38938   0.40212
 Alpha virt. eigenvalues --    0.40305   0.40654   0.40780   0.41206   0.41454
 Alpha virt. eigenvalues --    0.41660   0.41984   0.42481   0.43008   0.43389
 Alpha virt. eigenvalues --    0.43823   0.44106   0.44521   0.44904   0.45270
 Alpha virt. eigenvalues --    0.45852   0.46171   0.46261   0.46823   0.47167
 Alpha virt. eigenvalues --    0.47317   0.47657   0.48214   0.49428   0.50042
 Alpha virt. eigenvalues --    0.50208   0.50725   0.51347   0.51452   0.51581
 Alpha virt. eigenvalues --    0.51659   0.51682   0.52087   0.52526   0.53122
 Alpha virt. eigenvalues --    0.53798   0.54013   0.54591   0.55225   0.55274
 Alpha virt. eigenvalues --    0.55742   0.56667   0.57849   0.59251   0.59498
 Alpha virt. eigenvalues --    0.60197   0.60367   0.60626   0.60818   0.61082
 Alpha virt. eigenvalues --    0.61635   0.61880   0.62595   0.62762   0.63283
 Alpha virt. eigenvalues --    0.63672   0.63941   0.64870   0.64911   0.65110
 Alpha virt. eigenvalues --    0.65304   0.65343   0.65498   0.65692   0.65866
 Alpha virt. eigenvalues --    0.65986   0.66030   0.66456   0.66489   0.66547
 Alpha virt. eigenvalues --    0.66600   0.66754   0.66780   0.66972   0.67004
 Alpha virt. eigenvalues --    0.67184   0.67438   0.67633   0.68020   0.68499
 Alpha virt. eigenvalues --    0.68604   0.68619   0.68830   0.68921   0.69622
 Alpha virt. eigenvalues --    0.69758   0.69865   0.69882   0.69891   0.70026
 Alpha virt. eigenvalues --    0.70099   0.70214   0.70255   0.70310   0.70316
 Alpha virt. eigenvalues --    0.70503   0.70703   0.71050   0.71230   0.71402
 Alpha virt. eigenvalues --    0.71532   0.72122   0.72851   0.73060   0.73202
 Alpha virt. eigenvalues --    0.73590   0.73685   0.73894   0.73995   0.74033
 Alpha virt. eigenvalues --    0.74912   0.75106   0.75234   0.75459   0.75504
 Alpha virt. eigenvalues --    0.75797   0.76266   0.76512   0.76752   0.76997
 Alpha virt. eigenvalues --    0.77238   0.77612   0.77949   0.78391   0.78453
 Alpha virt. eigenvalues --    0.78477   0.78745   0.78788   0.79020   0.79285
 Alpha virt. eigenvalues --    0.79293   0.79918   0.79935   0.80461   0.80557
 Alpha virt. eigenvalues --    0.80811   0.81067   0.81344   0.81512   0.81532
 Alpha virt. eigenvalues --    0.81587   0.81778   0.82452   0.82501   0.82716
 Alpha virt. eigenvalues --    0.83040   0.83512   0.84063   0.84637   0.84656
 Alpha virt. eigenvalues --    0.84659   0.84903   0.84940   0.85518   0.87180
 Alpha virt. eigenvalues --    0.87883   0.88173   0.88475   0.88505   0.88836
 Alpha virt. eigenvalues --    0.88882   0.89316   0.89530   0.89654   0.90156
 Alpha virt. eigenvalues --    0.91387   0.91515   0.91753   0.91988   0.92210
 Alpha virt. eigenvalues --    0.92264   0.92327   0.92695   0.93068   0.93113
 Alpha virt. eigenvalues --    0.93375   0.93567   0.94955   0.94976   0.95404
 Alpha virt. eigenvalues --    0.95509   0.95899   0.96064   0.96146   0.96457
 Alpha virt. eigenvalues --    0.96542   0.96836   0.96913   0.97990   0.98109
 Alpha virt. eigenvalues --    0.98546   0.98784   0.98869   0.99001   0.99591
 Alpha virt. eigenvalues --    0.99789   0.99922   1.00044   1.00212   1.00385
 Alpha virt. eigenvalues --    1.01096   1.01613   1.01641   1.01645   1.01925
 Alpha virt. eigenvalues --    1.02148   1.02812   1.03167   1.03190   1.03230
 Alpha virt. eigenvalues --    1.03337   1.03429   1.03763   1.03819   1.04135
 Alpha virt. eigenvalues --    1.04150   1.04410   1.04438   1.05015   1.05272
 Alpha virt. eigenvalues --    1.05531   1.05589   1.06160   1.06325   1.06471
 Alpha virt. eigenvalues --    1.07346   1.07595   1.07675   1.07957   1.08049
 Alpha virt. eigenvalues --    1.08204   1.08224   1.08243   1.08558   1.08571
 Alpha virt. eigenvalues --    1.08587   1.08844   1.09117   1.09800   1.11364
 Alpha virt. eigenvalues --    1.11379   1.11649   1.11880   1.12051   1.12810
 Alpha virt. eigenvalues --    1.12824   1.13031   1.13054   1.13107   1.13160
 Alpha virt. eigenvalues --    1.13299   1.13315   1.13578   1.13823   1.13851
 Alpha virt. eigenvalues --    1.13868   1.15779   1.15971   1.16351   1.16498
 Alpha virt. eigenvalues --    1.16518   1.17090   1.17158   1.17383   1.17395
 Alpha virt. eigenvalues --    1.17808   1.19140   1.19236   1.20003   1.20205
 Alpha virt. eigenvalues --    1.20436   1.20633   1.20682   1.21580   1.21827
 Alpha virt. eigenvalues --    1.22568   1.22608   1.23472   1.23489   1.23541
 Alpha virt. eigenvalues --    1.24024   1.24937   1.26026   1.26482   1.26819
 Alpha virt. eigenvalues --    1.27502   1.27626   1.28455   1.28984   1.29240
 Alpha virt. eigenvalues --    1.30175   1.30502   1.30743   1.31141   1.32273
 Alpha virt. eigenvalues --    1.32605   1.32981   1.33873   1.34426   1.35233
 Alpha virt. eigenvalues --    1.36542   1.37614   1.37807   1.38125   1.38723
 Alpha virt. eigenvalues --    1.39104   1.40648   1.41205   1.41832   1.42265
 Alpha virt. eigenvalues --    1.42943   1.43970   1.44254   1.45840   1.46833
 Alpha virt. eigenvalues --    1.47274   1.47520   1.47727   1.47935   1.48146
 Alpha virt. eigenvalues --    1.48374   1.49311   1.49324   1.49784   1.49886
 Alpha virt. eigenvalues --    1.50350   1.50482   1.51672   1.51741   1.52886
 Alpha virt. eigenvalues --    1.53946   1.54101   1.54905   1.55491   1.56058
 Alpha virt. eigenvalues --    1.56083   1.56369   1.56968   1.57492   1.57670
 Alpha virt. eigenvalues --    1.57737   1.58660   1.58748   1.59935   1.60971
 Alpha virt. eigenvalues --    1.61248   1.61898   1.61948   1.62449   1.62484
 Alpha virt. eigenvalues --    1.65428   1.65813   1.65985   1.66433   1.66504
 Alpha virt. eigenvalues --    1.66859   1.67359   1.69125   1.70676   1.71679
 Alpha virt. eigenvalues --    1.71929   1.72088   1.72478   1.72876   1.73333
 Alpha virt. eigenvalues --    1.73661   1.75659   1.76257   1.77485   1.77491
 Alpha virt. eigenvalues --    1.79457   1.80012   1.81046   1.83374   1.85111
 Alpha virt. eigenvalues --    1.86219   1.91108   1.92006   1.92408   1.93005
 Alpha virt. eigenvalues --    1.94028   1.95742   1.95768   1.95953   1.96336
 Alpha virt. eigenvalues --    1.96364   1.98375   1.99191   1.99677   2.01058
 Alpha virt. eigenvalues --    2.02076   2.03339   2.05242   2.06005   2.07421
 Alpha virt. eigenvalues --    2.07487   2.10654   2.11903   2.12988   2.15175
 Alpha virt. eigenvalues --    2.16090   2.16395   2.17072   2.41512   2.42089
 Alpha virt. eigenvalues --    2.45048   2.45122   2.46389   2.46466   2.49744
 Alpha virt. eigenvalues --    2.49762   2.62482   2.62599   2.68823   2.68882
 Alpha virt. eigenvalues --    2.74897   2.77473   3.07838   3.13707   3.37804
 Alpha virt. eigenvalues --    3.38117   3.44330   3.49803   3.50084   3.50426
          Condensed to atoms (all electrons):
 Mulliken charges:
               1
     1  C    0.023928
     2  C    0.217602
     3  C   -0.196194
     4  N   -0.604986
     5  N   -0.582123
     6  S    0.605820
     7  H    0.202707
     8  H    0.197646
     9  C   -0.178751
    10  C    0.234183
    11  C   -0.155120
    12  H    0.212058
    13  C   -0.235127
    14  C   -0.180920
    15  S    0.488227
    16  C    0.134742
    17  C    0.034978
    18  C   -0.261708
    19  C    0.134660
    20  C    0.035079
    21  C   -0.261774
    22  C   -0.316973
    23  C    0.127965
    24  C    0.040985
    25  C   -0.317030
    26  C    0.128073
    27  C    0.040989
    28  C   -0.243542
    29  C    0.026440
    30  C   -0.245312
    31  C   -0.249781
    32  C   -0.243310
    33  C    0.026949
    34  C   -0.244659
    35  C   -0.249828
    36  C   -0.493768
    37  C   -0.493773
    38  C   -0.493784
    39  C   -0.493781
    40  H    0.176416
    41  H    0.176339
    42  H    0.177087
    43  H    0.189701
    44  H    0.176940
    45  H    0.189568
    46  H    0.186724
    47  H    0.185902
    48  H    0.206516
    49  H    0.206517
    50  H    0.185902
    51  H    0.186724
    52  H    0.186874
    53  H    0.206553
    54  H    0.185886
    55  H    0.186874
    56  H    0.185886
    57  H    0.206553
    58  H    0.188823
    59  H    0.188690
    60  S    0.489560
    61  C   -0.180317
    62  C   -0.235011
    63  C    0.025908
    64  C    0.236899
    65  C   -0.188971
    66  N   -0.608693
    67  N   -0.608812
    68  S    0.620259
    69  H    0.198669
    70  H    0.198659
    71  C   -0.188916
    72  C    0.236916
    73  C    0.025840
    74  C   -0.423342
    75  C   -0.173668
    76  S    0.406976
    77  C    0.134188
    78  C    0.035835
    79  C   -0.262672
    80  C    0.134668
    81  C    0.034666
    82  C   -0.261671
    83  C   -0.316953
    84  C    0.127930
    85  C    0.041139
    86  C   -0.316886
    87  C    0.127883
    88  C    0.038448
    89  C   -0.243336
    90  C    0.026873
    91  C   -0.244662
    92  C   -0.250013
    93  C   -0.245149
    94  C    0.021906
    95  C   -0.225108
    96  C   -0.244639
    97  C   -0.493728
    98  C   -0.493741
    99  C   -0.493863
   100  C   -0.493858
   101  H    0.176210
   102  H    0.175265
   103  H    0.178967
   104  H    0.189026
   105  H    0.176921
   106  H    0.189662
   107  H    0.186469
   108  H    0.185793
   109  H    0.206563
   110  H    0.206562
   111  H    0.185795
   112  H    0.186470
   113  H    0.186683
   114  H    0.206325
   115  H    0.186312
   116  H    0.186684
   117  H    0.186312
   118  H    0.206325
   119  H    0.188620
   120  H    0.194963
   121  S    0.488084
   122  C   -0.180895
   123  C   -0.235200
   124  H    0.221612
 Sum of Mulliken charges =  -0.00000
 Mulliken charges with hydrogens summed into heavy atoms:
               1
     1  C    0.023928
     2  C    0.217602
     3  C    0.001451
     4  N   -0.604986
     5  N   -0.582123
     6  S    0.605820
     9  C    0.023956
    10  C    0.234183
    11  C    0.056938
    13  C   -0.235127
    14  C    0.007770
    15  S    0.488227
    16  C    0.134742
    17  C    0.034978
    18  C   -0.085369
    19  C    0.134660
    20  C    0.035079
    21  C   -0.085359
    22  C   -0.316973
    23  C    0.127965
    24  C    0.040985
    25  C   -0.317030
    26  C    0.128073
    27  C    0.040989
    28  C   -0.066602
    29  C    0.026440
    30  C   -0.245312
    31  C   -0.060213
    32  C   -0.066223
    33  C    0.026949
    34  C   -0.244659
    35  C   -0.060127
    36  C    0.085374
    37  C    0.085371
    38  C    0.085529
    39  C    0.085532
    60  S    0.489560
    61  C    0.008506
    62  C   -0.235011
    63  C    0.025908
    64  C    0.236899
    65  C    0.009688
    66  N   -0.608693
    67  N   -0.608812
    68  S    0.620259
    71  C    0.009753
    72  C    0.236916
    73  C    0.025840
    74  C   -0.201730
    75  C    0.021294
    76  S    0.406976
    77  C    0.134188
    78  C    0.035835
    79  C   -0.087407
    80  C    0.134668
    81  C    0.034666
    82  C   -0.085461
    83  C   -0.316953
    84  C    0.127930
    85  C    0.041139
    86  C   -0.316886
    87  C    0.127883
    88  C    0.038448
    89  C   -0.066415
    90  C    0.026873
    91  C   -0.244662
    92  C   -0.060352
    93  C   -0.066183
    94  C    0.021906
    95  C   -0.225108
    96  C   -0.055614
    97  C    0.085096
    98  C    0.085085
    99  C    0.085458
   100  C    0.085462
   121  S    0.488084
   122  C    0.007726
   123  C   -0.235200
 Electronic spatial extent (au):  <R**2>=         314694.3386
 Charge=             -0.0000 electrons
 Dipole moment (field-independent basis, Debye):
    X=              0.2387    Y=              0.6061    Z=             -0.0008  Tot=              0.6514
 Quadrupole moment (field-independent basis, Debye-Ang):
   XX=           -441.7112   YY=           -435.2031   ZZ=           -515.3026
   XY=            -25.2546   XZ=              0.0072   YZ=             -0.0019
 Traceless Quadrupole moment (field-independent basis, Debye-Ang):
   XX=             22.3611   YY=             28.8692   ZZ=            -51.2303
   XY=            -25.2546   XZ=              0.0072   YZ=             -0.0019
 Octapole moment (field-independent basis, Debye-Ang**2):
  XXX=            421.3898  YYY=              6.9443  ZZZ=              0.0161  XYY=            -49.3062
  XXY=            970.1427  XXZ=             -0.2614  XZZ=            -43.2425  YZZ=              0.9047
  YYZ=             -0.0012  XYZ=              0.0552
 Hexadecapole moment (field-independent basis, Debye-Ang**3):
 XXXX=        -397550.2080 YYYY=          -9453.4537 ZZZZ=          -1227.2885 XXXY=          -6225.3560
 XXXZ=              2.7552 YYYX=            121.5151 YYYZ=             -0.0108 ZZZX=             -0.1079
 ZZZY=              0.0183 XXYY=         -66464.2214 XXZZ=         -76715.2435 YYZZ=          -1948.3481
 XXYZ=             -1.5311 YYXZ=              0.0616 ZZXY=            224.2477
 N-N= 1.112260617848D+04 E-N=-3.441438248805D+04  KE= 5.151618048237D+03
 Leave Link  601 at Tue Oct 10 20:58:36 2023, MaxMem=  1207959552 cpu:               2.4 elap:               0.3
 (Enter /opt/apps/chemistry/Gaussian/g16/l9999.exe)
 1\1\GINC-NODE057\FOpt\RB3LYP\3-21G*\C68H46N4S6\HMAKKI\10-Oct-2023\0\\#
 p opt b3lyp/3-21g*\\Gaussian optimization calculation on oligomer7\\0,
 1\C,-0.0468730081,-0.8156140158,0.1549510746\C,-0.8220455957,0.3912837
 685,0.1290190588\C,-0.7704605567,-1.9985936342,0.1662775606\N,-0.32435
 44076,1.6416749221,0.114619197\N,-2.8423081171,1.5801256214,0.09152669
 99\S,-1.6126449205,2.6817639177,0.0863992365\H,-2.6790445646,-3.003268
 7388,0.1634791462\H,-0.2423175087,-2.9428491691,0.1859343278\C,-2.1935
 848883,-2.0346131063,0.1532174225\C,-2.2758767596,0.3514495744,0.11576
 93816\C,-2.9545403302,-0.8926583266,0.1283920657\H,-4.0350755745,-0.91
 4749511,0.118383863\C,16.6722329116,0.3524523279,0.2978985532\C,15.834
 7123417,1.4460057633,0.2735105853\S,15.7528382011,-1.1657583818,0.3117
 943404\C,9.7320418933,0.9920254097,0.221682613\C,10.4298465169,-0.2405
 831447,0.2468513664\C,9.7410294127,-1.4607235314,0.258512307\C,8.35304
 17745,-1.4288216864,0.2446971973\C,7.6553211574,-0.1962147732,0.219527
 6553\C,8.3440538986,1.0238783213,0.2078686706\C,7.3737277688,-2.610094
 9772,0.2530009878\C,6.0211472488,-1.8852304756,0.2291336867\C,6.213051
 8592,-0.4709558345,0.2097902827\C,10.7112328177,2.1733420664,0.2133859
 314\C,12.0638154096,1.448548782,0.2372529618\C,11.8718435836,0.0342108
 893,0.2565861869\C,4.7551479789,-2.4286030937,0.2251016653\C,3.6412200
 779,-1.5563706906,0.201332948\C,3.8471936878,-0.1468531171,0.182205512
 5\C,5.132672057,0.4044254006,0.1862955157\C,13.3296137455,1.9920413797
 ,0.2412838123\C,14.4440648198,1.1200013251,0.2650596468\C,14.237650370
 5,-0.289987811,0.2841675715\C,12.9526270999,-0.8412006433,0.2800633823
 \C,7.5306361582,-3.4498011983,1.5450227082\C,7.5551925671,-3.488157126
 4,-1.0099738489\C,10.5297669611,3.0513813885,1.4763786773\C,10.5543336
 321,3.0130423304,-1.0786437162\H,7.8053509417,1.9653134554,0.188590691
 5\H,10.2796871986,-2.4021880409,0.2777909149\H,13.4848372817,3.0656640
 841,0.2266718333\H,12.8063330285,-1.9151211915,0.2947201141\H,4.599814
 9227,-3.5022274408,0.2396988313\H,5.2789298039,1.4783638935,0.17160078
 59\H,8.5267073076,-3.9053668733,1.5823309987\H,6.7821684708,-4.2499651
 532,1.569482782\H,7.3988059935,-2.8156496181,2.4262293128\H,7.44049582
 72,-2.8807855613,-1.9121910144\H,6.8071001918,-4.2889116621,-1.0247762
 915\H,8.5516609397,-3.9443554631,-1.0144479979\H,9.5582104063,3.468472
 8396,-1.1159520945\H,10.686232783,2.3789213593,-1.9598608932\H,11.3026
 976232,3.8133042581,-1.1030750315\H,9.5332446779,3.5074404616,1.480855
 6917\H,11.2777537253,3.8522351603,1.4911619509\H,10.6445287621,2.44402
 99178,2.3786000612\H,1.8943381727,-2.9029963828,0.2046536153\H,16.1896
 409201,2.4672525866,0.2616977063\S,2.3323463859,0.7289454416,0.1544698
 451\C,2.2493757947,-1.8817818705,0.1928553992\C,1.4135030227,-0.789035
 8526,0.1685047055\C,21.0717590205,0.4687841501,0.338419924\C,20.363213
 9333,-0.7741787405,0.3500328057\C,20.2692362638,1.6045852902,0.3139300
 356\N,20.9275737886,-1.9959874337,0.3736062172\N,18.4214736312,-2.0729
 386148,0.3506631071\S,19.7074489002,-3.1112736838,0.378426782\H,18.331
 7416792,2.5063111049,0.2819910857\H,20.7375309803,2.5801593599,0.30404
 20689\C,18.8587136912,1.5612730293,0.3010184386\C,18.9101533276,-0.818
 7918616,0.3367600893\C,18.1270712863,0.3783765444,0.3114847322\C,37.81
 05449739,0.3208211611,0.5026263174\C,37.0746269298,-0.8226653121,0.512
 6837153\S,36.8299079271,1.7703537422,0.471334612\C,30.938610016,-0.734
 5066122,0.4519138285\C,31.5591645214,0.538509361,0.4387871121\C,30.797
 353022,1.713572235,0.4137484703\C,29.4135815366,1.5964435783,0.4021124
 158\C,28.792744352,0.3234935686,0.4152311609\C,29.5550615259,-0.851821
 6829,0.4402802456\C,28.36399331,2.7153647879,0.375165411\C,27.05824403
 21,1.9088952615,0.3746002165\C,27.3363322043,0.5090615334,0.3983342544
 \C,31.98884499,-1.8529501069,0.4788831347\C,33.2942463992,-1.045917200
 7,0.4794051329\C,33.0168886687,0.3515054508,0.4557122655\C,25.76165194
 35,2.3737583367,0.355051035\C,24.7025428772,1.4349955863,0.3589066866\
 C,24.9947508889,0.0403787589,0.3827044078\C,26.3111234557,-0.430966177
 1,0.4025351767\C,34.5927408624,-1.5121286963,0.4989965181\C,35.6517453
 347,-0.5785333691,0.495224665\C,35.3576378616,0.8151766171,0.471424911
 7\C,34.0425668348,1.2905895036,0.4515359451\C,28.4676156216,3.60224568
 64,1.6408033078\C,28.4924028465,3.5640738215,-0.9141252543\C,31.860959
 689,-2.7016986978,1.7682409939\C,31.8857133086,-2.7400300399,-0.786678
 315\H,29.0752085286,-1.8247034154,0.4502580033\H,31.2770955053,2.68653
 84117,0.4037712514\H,34.8113379672,-2.574553486,0.5170859592\H,33.8325
 963933,2.353681258,0.4335228838\H,25.541245645,3.4358716197,0.33695007
 05\H,26.5227020527,-1.4938993161,0.4205617683\H,29.4337431854,4.119154
 8271,1.6633765113\H,27.6713244679,4.3552480559,1.6413890976\H,28.37408
 16267,2.9883930489,2.5410705543\H,28.4161707428,2.9235952516,-1.797313
 7475\H,27.696500471,4.3165022006,-0.9526451648\H,29.4589366063,4.08035
 76628,-0.9333790697\H,30.9200186432,-3.2577381478,-0.808991495\H,31.97
 8574892,-2.1262135335,-1.6870448604\H,32.6826210124,-3.4923534832,-0.7
 873023333\H,30.8948613495,-3.2187810539,1.7873613587\H,32.6574804891,-
 3.4534400404,1.8068658597\H,31.936544738,-2.0611291894,2.6514237134\H,
 22.8778506166,2.6725834734,0.3225850079\H,37.5070333512,-1.8136663182,
 0.5317695016\S,23.53595312,-0.9267632141,0.3830645114\C,23.2945575284,
 1.6750433052,0.3416710894\C,22.5254358987,0.5321455552,0.3514278789\H,
 38.8864182317,0.4044752392,0.5117947407\\Version=ES64L-G16RevA.03\Stat
 e=1-A\HF=-5200.4829283\RMSD=3.191e-09\RMSF=1.951e-06\Dipole=0.0971449,
 -0.2371179,0.004814\Quadrupole=16.1068512,21.9684943,-38.0753455,18.70
 7693,0.2357837,-0.7231208\PG=C01 [X(C68H46N4S6)]\\@


 THEORY:  SUPPOSITION WHICH HAS SCIENTIFIC BASIS,
          BUT NOT EXPERIMENTALLY PROVEN.
 FACT:    A THEORY WHICH HAS BEEN PROVEN BY ENOUGH 
          MONEY TO PAY FOR THE EXPERIMENTS.

                          --  THE WIZARD OF ID
 Job cpu time:       0 days  4 hours 29 minutes 37.0 seconds.
 Elapsed time:       0 days  0 hours 27 minutes 11.1 seconds.
 File lengths (MBytes):  RWF=    461 Int=      0 D2E=      0 Chk=     64 Scr=      1
 Normal termination of Gaussian 16 at Tue Oct 10 20:58:36 2023.
