 Entering Gaussian System, Link 0=g16
 Input=oligomer-1.com
 Output=oligomer-1.log
 Initial command:
 /opt/apps/chemistry/Gaussian/g16/l1.exe "/tmp/Gau-71510.inp" -scrdir="/tmp/"
 Entering Link 1 = /opt/apps/chemistry/Gaussian/g16/l1.exe PID=     71534.
  
 Copyright (c) 1988,1990,1992,1993,1995,1998,2003,2009,2016,
            Gaussian, Inc.  All Rights Reserved.
  
 This is part of the Gaussian(R) 16 program.  It is based on
 the Gaussian(R) 09 system (copyright 2009, Gaussian, Inc.),
 the Gaussian(R) 03 system (copyright 2003, Gaussian, Inc.),
 the Gaussian(R) 98 system (copyright 1998, Gaussian, Inc.),
 the Gaussian(R) 94 system (copyright 1995, Gaussian, Inc.),
 the Gaussian 92(TM) system (copyright 1992, Gaussian, Inc.),
 the Gaussian 90(TM) system (copyright 1990, Gaussian, Inc.),
 the Gaussian 88(TM) system (copyright 1988, Gaussian, Inc.),
 the Gaussian 86(TM) system (copyright 1986, Carnegie Mellon
 University), and the Gaussian 82(TM) system (copyright 1983,
 Carnegie Mellon University). Gaussian is a federally registered
 trademark of Gaussian, Inc.
  
 This software contains proprietary and confidential information,
 including trade secrets, belonging to Gaussian, Inc.
  
 This software is provided under written license and may be
 used, copied, transmitted, or stored only in accord with that
 written license.
  
 The following legend is applicable only to US Government
 contracts under FAR:
  
                    RESTRICTED RIGHTS LEGEND
  
 Use, reproduction and disclosure by the US Government is
 subject to restrictions as set forth in subparagraphs (a)
 and (c) of the Commercial Computer Software - Restricted
 Rights clause in FAR 52.227-19.
  
 Gaussian, Inc.
 340 Quinnipiac St., Bldg. 40, Wallingford CT 06492
  
  
 ---------------------------------------------------------------
 Warning -- This program may not be used in any manner that
 competes with the business of Gaussian, Inc. or will provide
 assistance to any competitor of Gaussian, Inc.  The licensee
 of this program is prohibited from giving any competitor of
 Gaussian, Inc. access to this program.  By using this program,
 the user acknowledges that Gaussian, Inc. is engaged in the
 business of creating and licensing software in the field of
 computational chemistry and represents and warrants to the
 licensee that it is not a competitor of Gaussian, Inc. and that
 it will not use this program in any manner prohibited above.
 ---------------------------------------------------------------
  

 Cite this work as:
 Gaussian 16, Revision A.03,
 M. J. Frisch, G. W. Trucks, H. B. Schlegel, G. E. Scuseria, 
 M. A. Robb, J. R. Cheeseman, G. Scalmani, V. Barone, 
 G. A. Petersson, H. Nakatsuji, X. Li, M. Caricato, A. V. Marenich, 
 J. Bloino, B. G. Janesko, R. Gomperts, B. Mennucci, H. P. Hratchian, 
 J. V. Ortiz, A. F. Izmaylov, J. L. Sonnenberg, D. Williams-Young, 
 F. Ding, F. Lipparini, F. Egidi, J. Goings, B. Peng, A. Petrone, 
 T. Henderson, D. Ranasinghe, V. G. Zakrzewski, J. Gao, N. Rega, 
 G. Zheng, W. Liang, M. Hada, M. Ehara, K. Toyota, R. Fukuda, 
 J. Hasegawa, M. Ishida, T. Nakajima, Y. Honda, O. Kitao, H. Nakai, 
 T. Vreven, K. Throssell, J. A. Montgomery, Jr., J. E. Peralta, 
 F. Ogliaro, M. J. Bearpark, J. J. Heyd, E. N. Brothers, K. N. Kudin, 
 V. N. Staroverov, T. A. Keith, R. Kobayashi, J. Normand, 
 K. Raghavachari, A. P. Rendell, J. C. Burant, S. S. Iyengar, 
 J. Tomasi, M. Cossi, J. M. Millam, M. Klene, C. Adamo, R. Cammi, 
 J. W. Ochterski, R. L. Martin, K. Morokuma, O. Farkas, 
 J. B. Foresman, and D. J. Fox, Gaussian, Inc., Wallingford CT, 2016.
 
 ******************************************
 Gaussian 16:  ES64L-G16RevA.03 25-Dec-2016
                11-Nov-2023 
 ******************************************
 %nproc=10
 Will use up to   10 processors via shared memory.
 %mem=9GB
 %chk=TIFBT1.chk
 -------------------
 #p opt b3lyp/3-21g*
 -------------------
 1/18=20,19=15,26=3,38=1/1,3;
 2/9=110,12=2,17=6,18=5,40=1/2;
 3/5=5,7=1,11=2,25=1,30=1,71=1,74=-5/1,2,3;
 4//1;
 5/5=2,38=5/2;
 6/7=2,8=2,9=2,10=2,28=1/1;
 7//1,2,3,16;
 1/18=20,19=15,26=3/3(2);
 2/9=110/2;
 99//99;
 2/9=110/2;
 3/5=5,7=1,11=2,25=1,30=1,71=1,74=-5/1,2,3;
 4/5=5,16=3,69=1/1;
 5/5=2,38=5/2;
 7//1,2,3,16;
 1/18=20,19=15,26=3/3(-5);
 2/9=110/2;
 6/7=2,8=2,9=2,10=2,19=2,28=1/1;
 99/9=1/99;
 Leave Link    1 at Sat Nov 11 22:40:26 2023, MaxMem=  1207959552 cpu:               0.6 elap:               0.1
 (Enter /opt/apps/chemistry/Gaussian/g16/l101.exe)
 ----------------------------------------------
 Gaussian optimization calculation on oligomer1
 ----------------------------------------------
 Symbolic Z-matrix:
 Charge =  0 Multiplicity = 1
 C                     0.        0.        0. 
 C                    -0.83535   1.13173   0.23061 
 C                    -0.59914  -1.22205  -0.16299 
 N                    -0.42636   2.3945    0.41107 
 N                    -2.93672   2.11633   0.51 
 S                    -1.78923   3.28881   0.63357 
 H                    -2.44042  -2.37341  -0.24338 
 H                     0.01368  -2.1015   -0.34011 
 C                    -2.02278  -1.3798   -0.10688 
 C                    -2.27691   0.972     0.28742 
 C                    -2.86002  -0.31689   0.11272 
 H                    -3.93826  -0.42797   0.15657 
 C                     16.70777   0.20931   0.21307 
 C                     16.00556  -0.90519   0.54425 
 S                     15.68317   1.57528  -0.17794 
 C                     9.88035  -0.99096   0.61756 
 C                     10.45676   0.24564   0.25156 
 C                     9.65511   1.34981  -0.06512 
 C                     8.27483   1.1983   -0.01026 
 C                     7.69844  -0.03823   0.3559 
 C                     8.50008  -1.1424    0.67263 
 C                     7.19442   2.23881  -0.30655 
 C                     5.9208    1.42893  -0.05965 
 C                     6.24016   0.09928   0.32684 
 C                     10.9607  -2.03167   0.91319 
 C                     12.23434  -1.22176   0.66659 
 C                     11.91502   0.10804   0.28056 
 C                     4.60676   1.84017  -0.16985 
 C                     3.57523   0.91753   0.10803 
 C                     3.9162   -0.40672   0.493 
 C                     5.24349  -0.83087   0.6069 
 C                     13.54834  -1.63319   0.77636 
 C                     14.57993  -0.71057   0.4987 
 C                     14.23905   0.61398   0.11469 
 C                     12.91178   1.03832   0.00118 
 C                     7.29267   3.44088   0.65947 
 C                     7.27414   2.731    -1.76912 
 C                     10.88125  -2.52342   2.37598 
 C                     10.86214  -3.23401  -0.05237 
 H                     8.05098  -2.0924    0.95422 
 H                     10.1042   2.29996  -0.34621 
 H                     13.80036  -2.64949   1.07126 
 H                     12.67142   2.05597  -0.29395 
 H                     4.3547    2.85627  -0.46534 
 H                     5.48391  -1.84822   0.90303 
 H                     8.23938   3.97536   0.51848 
 H                     6.47653   4.15032   0.47939 
 H                     7.237     3.11378   1.7026 
 H                     7.20569   1.89376  -2.47094 
 H                     6.45742   3.42872  -1.98803 
 H                     8.22031   3.25387  -1.95126 
 H                     9.9157   -3.7687    0.08953 
 H                     10.91695  -2.90717  -1.09563 
 H                     11.67862  -3.94311   0.12744 
 H                     9.93473  -3.04547   2.55875 
 H                     11.69754  -3.22169   2.59484 
 H                     10.95067  -1.68605   3.07758 
 H                     1.68377   2.05335  -0.21023 
 H                     16.47134  -1.84686   0.81564 
 S                     2.47212  -1.36819   0.7853 
 C                     2.1496    1.11189   0.06183 
 C                     1.44745  -0.00248   0.39356 
 C                     21.03965  -0.42797   0.15657 
 C                     20.51179   0.85014   0.50241 
 C                     20.15661  -1.42405  -0.17059 
 N                     21.22087   1.93315   0.84695 
 N                     18.72203   2.31377   0.84565 
 S                     20.12353   3.12292   1.14189 
 H                     18.08881  -2.03585  -0.43948 
 H                     20.53165  -2.40795  -0.43822 
 C                     18.73951  -1.2082   -0.17133 
 C                     19.07685   1.06871   0.50166 
 C                     18.19275   0.00567   0.15509 
 C                     37.53026  -3.39862   0.58231 
 C                     36.61256  -4.35397   0.88233 
 S                     36.80655  -1.86162   0.15518 
 C                     30.58922  -3.24856   0.71394 
 C                     31.40869  -2.14917   0.37452 
 C                     30.84977  -0.91191   0.02969 
 C                     29.46526  -0.7923    0.02966 
 C                     28.64583  -1.89162   0.36924 
 C                     29.20473  -3.12887   0.71412 
 C                     28.61995   0.43673  -0.30596 
 C                     27.20462  -0.10926  -0.1118 
 C                     27.24429  -1.47374   0.28313 
 C                     31.43447  -4.47778   1.0489 
 C                     32.84981  -3.93175   0.85503 
 C                     32.81019  -2.56714   0.46057 
 C                     26.0008   0.54873  -0.27251 
 C                     24.79965  -0.15473  -0.03817 
 C                     24.86161  -1.51811   0.35611 
 C                     26.07576  -2.19134   0.521 
 C                     34.05357  -4.58993   1.01531 
 C                     35.25477  -3.88649   0.78119 
 C                     35.19291  -2.52283   0.38788 
 C                     33.9788  -1.84943   0.22338 
 C                     28.91178   1.6015    0.66665 
 C                     28.85103   0.89703  -1.76283 
 C                     31.20373  -4.93769   2.50599 
 C                     31.14226  -5.64274   0.07673 
 H                     28.56902  -3.97224   0.97505 
 H                     31.48549  -0.0684   -0.23074 
 H                     34.09168  -5.63438   1.31697 
 H                     33.95239  -0.80591  -0.07805 
 H                     25.96263   1.593    -0.57476 
 H                     26.10225  -3.23456   0.82343 
 H                     29.94905   1.94132   0.56463 
 H                     28.25664   2.45502   0.4566 
 H                     28.75278   1.29646   1.70583 
 H                     28.64888   0.08564  -2.46922 
 H                     28.19457   1.73898  -2.01173 
 H                     29.88712   1.22537  -1.90602 
 H                     30.10518  -5.98282   0.17968 
 H                     31.30037  -5.33779  -0.9626 
 H                     31.7978  -6.496     0.28653 
 H                     30.16743  -5.26516   2.6498 
 H                     31.85966  -5.7801    2.75483 
 H                     31.40686  -4.12637   3.2122 
 H                     23.17872   1.32515  -0.42744 
 H                     36.8756  -5.36684   1.16914 
 S                     23.24799  -2.17951   0.58849 
 C                     23.44183   0.31248  -0.13996 
 C                     22.52419  -0.64275   0.16062 
 H                     38.60834  -3.49293   0.58231 
 
 ITRead=  0  0  0  0  0  0  0  0  0  0  0  0  0  0  0  0  0  0  0  0
 ITRead=  0  0  0  0  0  0  0  0  0  0  0  0  0  0  0  0  0  0  0  0
 ITRead=  0  0  0  0  0  0  0  0  0  0  0  0  0  0  0  0  0  0  0  0
 ITRead=  0  0  0  0  0  0  0  0  0  0  0  0  0  0  0  0  0  0  0  0
 ITRead=  0  0  0  0  0  0  0  0  0  0  0  0  0  0  0  0  0  0  0  0
 ITRead=  0  0  0  0  0  0  0  0  0  0  0  0  0  0  0  0  0  0  0  0
 ITRead=  0  0  0  0
 MicOpt= -1 -1 -1 -1 -1 -1 -1 -1 -1 -1 -1 -1 -1 -1 -1 -1 -1 -1 -1 -1
 MicOpt= -1 -1 -1 -1 -1 -1 -1 -1 -1 -1 -1 -1 -1 -1 -1 -1 -1 -1 -1 -1
 MicOpt= -1 -1 -1 -1 -1 -1 -1 -1 -1 -1 -1 -1 -1 -1 -1 -1 -1 -1 -1 -1
 MicOpt= -1 -1 -1 -1 -1 -1 -1 -1 -1 -1 -1 -1 -1 -1 -1 -1 -1 -1 -1 -1
 MicOpt= -1 -1 -1 -1 -1 -1 -1 -1 -1 -1 -1 -1 -1 -1 -1 -1 -1 -1 -1 -1
 MicOpt= -1 -1 -1 -1 -1 -1 -1 -1 -1 -1 -1 -1 -1 -1 -1 -1 -1 -1 -1 -1
 MicOpt= -1 -1 -1 -1
 NAtoms=    124 NQM=      124 NQMF=       0 NMMI=      0 NMMIF=      0
                NMic=       0 NMicF=      0.
                    Isotopes and Nuclear Properties:
 (Nuclear quadrupole moments (NQMom) in fm**2, nuclear magnetic moments (NMagM)
  in nuclear magnetons)

  Atom         1           2           3           4           5           6           7           8           9          10
 IAtWgt=          12          12          12          14          14          32           1           1          12          12
 AtmWgt=  12.0000000  12.0000000  12.0000000  14.0030740  14.0030740  31.9720718   1.0078250   1.0078250  12.0000000  12.0000000
 NucSpn=           0           0           0           2           2           0           1           1           0           0
 AtZEff=  -0.0000000  -0.0000000  -0.0000000  -0.0000000  -0.0000000  -0.0000000  -0.0000000  -0.0000000  -0.0000000  -0.0000000
 NQMom=    0.0000000   0.0000000   0.0000000   2.0440000   2.0440000   0.0000000   0.0000000   0.0000000   0.0000000   0.0000000
 NMagM=    0.0000000   0.0000000   0.0000000   0.4037610   0.4037610   0.0000000   2.7928460   2.7928460   0.0000000   0.0000000
 AtZNuc=   6.0000000   6.0000000   6.0000000   7.0000000   7.0000000  16.0000000   1.0000000   1.0000000   6.0000000   6.0000000

  Atom        11          12          13          14          15          16          17          18          19          20
 IAtWgt=          12           1          12          12          32          12          12          12          12          12
 AtmWgt=  12.0000000   1.0078250  12.0000000  12.0000000  31.9720718  12.0000000  12.0000000  12.0000000  12.0000000  12.0000000
 NucSpn=           0           1           0           0           0           0           0           0           0           0
 AtZEff=  -0.0000000  -0.0000000  -0.0000000  -0.0000000  -0.0000000  -0.0000000  -0.0000000  -0.0000000  -0.0000000  -0.0000000
 NQMom=    0.0000000   0.0000000   0.0000000   0.0000000   0.0000000   0.0000000   0.0000000   0.0000000   0.0000000   0.0000000
 NMagM=    0.0000000   2.7928460   0.0000000   0.0000000   0.0000000   0.0000000   0.0000000   0.0000000   0.0000000   0.0000000
 AtZNuc=   6.0000000   1.0000000   6.0000000   6.0000000  16.0000000   6.0000000   6.0000000   6.0000000   6.0000000   6.0000000

  Atom        21          22          23          24          25          26          27          28          29          30
 IAtWgt=          12          12          12          12          12          12          12          12          12          12
 AtmWgt=  12.0000000  12.0000000  12.0000000  12.0000000  12.0000000  12.0000000  12.0000000  12.0000000  12.0000000  12.0000000
 NucSpn=           0           0           0           0           0           0           0           0           0           0
 AtZEff=  -0.0000000  -0.0000000  -0.0000000  -0.0000000  -0.0000000  -0.0000000  -0.0000000  -0.0000000  -0.0000000  -0.0000000
 NQMom=    0.0000000   0.0000000   0.0000000   0.0000000   0.0000000   0.0000000   0.0000000   0.0000000   0.0000000   0.0000000
 NMagM=    0.0000000   0.0000000   0.0000000   0.0000000   0.0000000   0.0000000   0.0000000   0.0000000   0.0000000   0.0000000
 AtZNuc=   6.0000000   6.0000000   6.0000000   6.0000000   6.0000000   6.0000000   6.0000000   6.0000000   6.0000000   6.0000000

  Atom        31          32          33          34          35          36          37          38          39          40
 IAtWgt=          12          12          12          12          12          12          12          12          12           1
 AtmWgt=  12.0000000  12.0000000  12.0000000  12.0000000  12.0000000  12.0000000  12.0000000  12.0000000  12.0000000   1.0078250
 NucSpn=           0           0           0           0           0           0           0           0           0           1
 AtZEff=  -0.0000000  -0.0000000  -0.0000000  -0.0000000  -0.0000000  -0.0000000  -0.0000000  -0.0000000  -0.0000000  -0.0000000
 NQMom=    0.0000000   0.0000000   0.0000000   0.0000000   0.0000000   0.0000000   0.0000000   0.0000000   0.0000000   0.0000000
 NMagM=    0.0000000   0.0000000   0.0000000   0.0000000   0.0000000   0.0000000   0.0000000   0.0000000   0.0000000   2.7928460
 AtZNuc=   6.0000000   6.0000000   6.0000000   6.0000000   6.0000000   6.0000000   6.0000000   6.0000000   6.0000000   1.0000000

  Atom        41          42          43          44          45          46          47          48          49          50
 IAtWgt=           1           1           1           1           1           1           1           1           1           1
 AtmWgt=   1.0078250   1.0078250   1.0078250   1.0078250   1.0078250   1.0078250   1.0078250   1.0078250   1.0078250   1.0078250
 NucSpn=           1           1           1           1           1           1           1           1           1           1
 AtZEff=  -0.0000000  -0.0000000  -0.0000000  -0.0000000  -0.0000000  -0.0000000  -0.0000000  -0.0000000  -0.0000000  -0.0000000
 NQMom=    0.0000000   0.0000000   0.0000000   0.0000000   0.0000000   0.0000000   0.0000000   0.0000000   0.0000000   0.0000000
 NMagM=    2.7928460   2.7928460   2.7928460   2.7928460   2.7928460   2.7928460   2.7928460   2.7928460   2.7928460   2.7928460
 AtZNuc=   1.0000000   1.0000000   1.0000000   1.0000000   1.0000000   1.0000000   1.0000000   1.0000000   1.0000000   1.0000000

  Atom        51          52          53          54          55          56          57          58          59          60
 IAtWgt=           1           1           1           1           1           1           1           1           1          32
 AtmWgt=   1.0078250   1.0078250   1.0078250   1.0078250   1.0078250   1.0078250   1.0078250   1.0078250   1.0078250  31.9720718
 NucSpn=           1           1           1           1           1           1           1           1           1           0
 AtZEff=  -0.0000000  -0.0000000  -0.0000000  -0.0000000  -0.0000000  -0.0000000  -0.0000000  -0.0000000  -0.0000000  -0.0000000
 NQMom=    0.0000000   0.0000000   0.0000000   0.0000000   0.0000000   0.0000000   0.0000000   0.0000000   0.0000000   0.0000000
 NMagM=    2.7928460   2.7928460   2.7928460   2.7928460   2.7928460   2.7928460   2.7928460   2.7928460   2.7928460   0.0000000
 AtZNuc=   1.0000000   1.0000000   1.0000000   1.0000000   1.0000000   1.0000000   1.0000000   1.0000000   1.0000000  16.0000000

  Atom        61          62          63          64          65          66          67          68          69          70
 IAtWgt=          12          12          12          12          12          14          14          32           1           1
 AtmWgt=  12.0000000  12.0000000  12.0000000  12.0000000  12.0000000  14.0030740  14.0030740  31.9720718   1.0078250   1.0078250
 NucSpn=           0           0           0           0           0           2           2           0           1           1
 AtZEff=  -0.0000000  -0.0000000  -0.0000000  -0.0000000  -0.0000000  -0.0000000  -0.0000000  -0.0000000  -0.0000000  -0.0000000
 NQMom=    0.0000000   0.0000000   0.0000000   0.0000000   0.0000000   2.0440000   2.0440000   0.0000000   0.0000000   0.0000000
 NMagM=    0.0000000   0.0000000   0.0000000   0.0000000   0.0000000   0.4037610   0.4037610   0.0000000   2.7928460   2.7928460
 AtZNuc=   6.0000000   6.0000000   6.0000000   6.0000000   6.0000000   7.0000000   7.0000000  16.0000000   1.0000000   1.0000000

  Atom        71          72          73          74          75          76          77          78          79          80
 IAtWgt=          12          12          12          12          12          32          12          12          12          12
 AtmWgt=  12.0000000  12.0000000  12.0000000  12.0000000  12.0000000  31.9720718  12.0000000  12.0000000  12.0000000  12.0000000
 NucSpn=           0           0           0           0           0           0           0           0           0           0
 AtZEff=  -0.0000000  -0.0000000  -0.0000000  -0.0000000  -0.0000000  -0.0000000  -0.0000000  -0.0000000  -0.0000000  -0.0000000
 NQMom=    0.0000000   0.0000000   0.0000000   0.0000000   0.0000000   0.0000000   0.0000000   0.0000000   0.0000000   0.0000000
 NMagM=    0.0000000   0.0000000   0.0000000   0.0000000   0.0000000   0.0000000   0.0000000   0.0000000   0.0000000   0.0000000
 AtZNuc=   6.0000000   6.0000000   6.0000000   6.0000000   6.0000000  16.0000000   6.0000000   6.0000000   6.0000000   6.0000000

  Atom        81          82          83          84          85          86          87          88          89          90
 IAtWgt=          12          12          12          12          12          12          12          12          12          12
 AtmWgt=  12.0000000  12.0000000  12.0000000  12.0000000  12.0000000  12.0000000  12.0000000  12.0000000  12.0000000  12.0000000
 NucSpn=           0           0           0           0           0           0           0           0           0           0
 AtZEff=  -0.0000000  -0.0000000  -0.0000000  -0.0000000  -0.0000000  -0.0000000  -0.0000000  -0.0000000  -0.0000000  -0.0000000
 NQMom=    0.0000000   0.0000000   0.0000000   0.0000000   0.0000000   0.0000000   0.0000000   0.0000000   0.0000000   0.0000000
 NMagM=    0.0000000   0.0000000   0.0000000   0.0000000   0.0000000   0.0000000   0.0000000   0.0000000   0.0000000   0.0000000
 AtZNuc=   6.0000000   6.0000000   6.0000000   6.0000000   6.0000000   6.0000000   6.0000000   6.0000000   6.0000000   6.0000000

  Atom        91          92          93          94          95          96          97          98          99         100
 IAtWgt=          12          12          12          12          12          12          12          12          12          12
 AtmWgt=  12.0000000  12.0000000  12.0000000  12.0000000  12.0000000  12.0000000  12.0000000  12.0000000  12.0000000  12.0000000
 NucSpn=           0           0           0           0           0           0           0           0           0           0
 AtZEff=  -0.0000000  -0.0000000  -0.0000000  -0.0000000  -0.0000000  -0.0000000  -0.0000000  -0.0000000  -0.0000000  -0.0000000
 NQMom=    0.0000000   0.0000000   0.0000000   0.0000000   0.0000000   0.0000000   0.0000000   0.0000000   0.0000000   0.0000000
 NMagM=    0.0000000   0.0000000   0.0000000   0.0000000   0.0000000   0.0000000   0.0000000   0.0000000   0.0000000   0.0000000
 AtZNuc=   6.0000000   6.0000000   6.0000000   6.0000000   6.0000000   6.0000000   6.0000000   6.0000000   6.0000000   6.0000000

  Atom       101         102         103         104         105         106         107         108         109         110
 IAtWgt=           1           1           1           1           1           1           1           1           1           1
 AtmWgt=   1.0078250   1.0078250   1.0078250   1.0078250   1.0078250   1.0078250   1.0078250   1.0078250   1.0078250   1.0078250
 NucSpn=           1           1           1           1           1           1           1           1           1           1
 AtZEff=  -0.0000000  -0.0000000  -0.0000000  -0.0000000  -0.0000000  -0.0000000  -0.0000000  -0.0000000  -0.0000000  -0.0000000
 NQMom=    0.0000000   0.0000000   0.0000000   0.0000000   0.0000000   0.0000000   0.0000000   0.0000000   0.0000000   0.0000000
 NMagM=    2.7928460   2.7928460   2.7928460   2.7928460   2.7928460   2.7928460   2.7928460   2.7928460   2.7928460   2.7928460
 AtZNuc=   1.0000000   1.0000000   1.0000000   1.0000000   1.0000000   1.0000000   1.0000000   1.0000000   1.0000000   1.0000000

  Atom       111         112         113         114         115         116         117         118         119         120
 IAtWgt=           1           1           1           1           1           1           1           1           1           1
 AtmWgt=   1.0078250   1.0078250   1.0078250   1.0078250   1.0078250   1.0078250   1.0078250   1.0078250   1.0078250   1.0078250
 NucSpn=           1           1           1           1           1           1           1           1           1           1
 AtZEff=  -0.0000000  -0.0000000  -0.0000000  -0.0000000  -0.0000000  -0.0000000  -0.0000000  -0.0000000  -0.0000000  -0.0000000
 NQMom=    0.0000000   0.0000000   0.0000000   0.0000000   0.0000000   0.0000000   0.0000000   0.0000000   0.0000000   0.0000000
 NMagM=    2.7928460   2.7928460   2.7928460   2.7928460   2.7928460   2.7928460   2.7928460   2.7928460   2.7928460   2.7928460
 AtZNuc=   1.0000000   1.0000000   1.0000000   1.0000000   1.0000000   1.0000000   1.0000000   1.0000000   1.0000000   1.0000000

  Atom       121         122         123         124
 IAtWgt=          32          12          12           1
 AtmWgt=  31.9720718  12.0000000  12.0000000   1.0078250
 NucSpn=           0           0           0           1
 AtZEff=  -0.0000000  -0.0000000  -0.0000000  -0.0000000
 NQMom=    0.0000000   0.0000000   0.0000000   0.0000000
 NMagM=    0.0000000   0.0000000   0.0000000   2.7928460
 AtZNuc=  16.0000000   6.0000000   6.0000000   1.0000000
 Leave Link  101 at Sat Nov 11 22:40:26 2023, MaxMem=  1207959552 cpu:               5.0 elap:               0.5
 (Enter /opt/apps/chemistry/Gaussian/g16/l103.exe)

 GradGradGradGradGradGradGradGradGradGradGradGradGradGradGradGradGradGrad
 Berny optimization.
 Initialization pass.
                           ----------------------------
                           !    Initial Parameters    !
                           ! (Angstroms and Degrees)  !
 --------------------------                            --------------------------
 ! Name  Definition              Value          Derivative Info.                !
 --------------------------------------------------------------------------------
 ! R1    R(1,2)                  1.4254         estimate D2E/DX2                !
 ! R2    R(1,3)                  1.3707         estimate D2E/DX2                !
 ! R3    R(1,62)                 1.5            estimate D2E/DX2                !
 ! R4    R(2,4)                  1.3396         estimate D2E/DX2                !
 ! R5    R(2,10)                 1.4515         estimate D2E/DX2                !
 ! R6    R(3,8)                  1.0864         estimate D2E/DX2                !
 ! R7    R(3,9)                  1.4334         estimate D2E/DX2                !
 ! R8    R(4,6)                  1.6452         estimate D2E/DX2                !
 ! R9    R(5,6)                  1.6452         estimate D2E/DX2                !
 ! R10   R(5,10)                 1.3395         estimate D2E/DX2                !
 ! R11   R(7,9)                  1.0864         estimate D2E/DX2                !
 ! R12   R(9,11)                 1.3708         estimate D2E/DX2                !
 ! R13   R(10,11)                1.4254         estimate D2E/DX2                !
 ! R14   R(11,12)                1.0848         estimate D2E/DX2                !
 ! R15   R(13,14)                1.3583         estimate D2E/DX2                !
 ! R16   R(13,15)                1.7517         estimate D2E/DX2                !
 ! R17   R(13,73)                1.5            estimate D2E/DX2                !
 ! R18   R(14,33)                1.4396         estimate D2E/DX2                !
 ! R19   R(14,59)                1.0851         estimate D2E/DX2                !
 ! R20   R(15,34)                1.7593         estimate D2E/DX2                !
 ! R21   R(16,17)                1.4126         estimate D2E/DX2                !
 ! R22   R(16,21)                1.3896         estimate D2E/DX2                !
 ! R23   R(16,25)                1.5289         estimate D2E/DX2                !
 ! R24   R(17,18)                1.4008         estimate D2E/DX2                !
 ! R25   R(17,27)                1.465          estimate D2E/DX2                !
 ! R26   R(18,19)                1.3897         estimate D2E/DX2                !
 ! R27   R(18,41)                1.0879         estimate D2E/DX2                !
 ! R28   R(19,20)                1.4126         estimate D2E/DX2                !
 ! R29   R(19,22)                1.529          estimate D2E/DX2                !
 ! R30   R(20,21)                1.4008         estimate D2E/DX2                !
 ! R31   R(20,24)                1.465          estimate D2E/DX2                !
 ! R32   R(21,40)                1.0879         estimate D2E/DX2                !
 ! R33   R(22,23)                1.5294         estimate D2E/DX2                !
 ! R34   R(22,36)                1.5453         estimate D2E/DX2                !
 ! R35   R(22,37)                1.5452         estimate D2E/DX2                !
 ! R36   R(23,24)                1.421          estimate D2E/DX2                !
 ! R37   R(23,28)                1.3813         estimate D2E/DX2                !
 ! R38   R(24,31)                1.3918         estimate D2E/DX2                !
 ! R39   R(25,26)                1.5294         estimate D2E/DX2                !
 ! R40   R(25,38)                1.5453         estimate D2E/DX2                !
 ! R41   R(25,39)                1.5452         estimate D2E/DX2                !
 ! R42   R(26,27)                1.421          estimate D2E/DX2                !
 ! R43   R(26,32)                1.3813         estimate D2E/DX2                !
 ! R44   R(27,35)                1.3918         estimate D2E/DX2                !
 ! R45   R(28,29)                1.4116         estimate D2E/DX2                !
 ! R46   R(28,44)                1.0878         estimate D2E/DX2                !
 ! R47   R(29,30)                1.4206         estimate D2E/DX2                !
 ! R48   R(29,61)                1.4396         estimate D2E/DX2                !
 ! R49   R(30,31)                1.3981         estimate D2E/DX2                !
 ! R50   R(30,60)                1.7593         estimate D2E/DX2                !
 ! R51   R(31,45)                1.0865         estimate D2E/DX2                !
 ! R52   R(32,33)                1.4116         estimate D2E/DX2                !
 ! R53   R(32,42)                1.0878         estimate D2E/DX2                !
 ! R54   R(33,34)                1.4206         estimate D2E/DX2                !
 ! R55   R(34,35)                1.3981         estimate D2E/DX2                !
 ! R56   R(35,43)                1.0865         estimate D2E/DX2                !
 ! R57   R(36,46)                1.0963         estimate D2E/DX2                !
 ! R58   R(36,47)                1.0963         estimate D2E/DX2                !
 ! R59   R(36,48)                1.0946         estimate D2E/DX2                !
 ! R60   R(37,49)                1.0946         estimate D2E/DX2                !
 ! R61   R(37,50)                1.0962         estimate D2E/DX2                !
 ! R62   R(37,51)                1.0963         estimate D2E/DX2                !
 ! R63   R(38,55)                1.0963         estimate D2E/DX2                !
 ! R64   R(38,56)                1.0963         estimate D2E/DX2                !
 ! R65   R(38,57)                1.0946         estimate D2E/DX2                !
 ! R66   R(39,52)                1.0963         estimate D2E/DX2                !
 ! R67   R(39,53)                1.0946         estimate D2E/DX2                !
 ! R68   R(39,54)                1.0963         estimate D2E/DX2                !
 ! R69   R(58,61)                1.0851         estimate D2E/DX2                !
 ! R70   R(60,62)                1.7517         estimate D2E/DX2                !
 ! R71   R(61,62)                1.3583         estimate D2E/DX2                !
 ! R72   R(63,64)                1.4254         estimate D2E/DX2                !
 ! R73   R(63,65)                1.3707         estimate D2E/DX2                !
 ! R74   R(63,123)               1.5            estimate D2E/DX2                !
 ! R75   R(64,66)                1.3396         estimate D2E/DX2                !
 ! R76   R(64,72)                1.4515         estimate D2E/DX2                !
 ! R77   R(65,70)                1.0864         estimate D2E/DX2                !
 ! R78   R(65,71)                1.4334         estimate D2E/DX2                !
 ! R79   R(66,68)                1.6452         estimate D2E/DX2                !
 ! R80   R(67,68)                1.6452         estimate D2E/DX2                !
 ! R81   R(67,72)                1.3395         estimate D2E/DX2                !
 ! R82   R(69,71)                1.0864         estimate D2E/DX2                !
 ! R83   R(71,73)                1.3708         estimate D2E/DX2                !
 ! R84   R(72,73)                1.4254         estimate D2E/DX2                !
 ! R85   R(74,75)                1.3583         estimate D2E/DX2                !
 ! R86   R(74,76)                1.7517         estimate D2E/DX2                !
 ! R87   R(74,124)               1.0822         estimate D2E/DX2                !
 ! R88   R(75,94)                1.4396         estimate D2E/DX2                !
 ! R89   R(75,120)               1.0851         estimate D2E/DX2                !
 ! R90   R(76,95)                1.7593         estimate D2E/DX2                !
 ! R91   R(77,78)                1.4126         estimate D2E/DX2                !
 ! R92   R(77,82)                1.3896         estimate D2E/DX2                !
 ! R93   R(77,86)                1.5289         estimate D2E/DX2                !
 ! R94   R(78,79)                1.4008         estimate D2E/DX2                !
 ! R95   R(78,88)                1.465          estimate D2E/DX2                !
 ! R96   R(79,80)                1.3897         estimate D2E/DX2                !
 ! R97   R(79,102)               1.0879         estimate D2E/DX2                !
 ! R98   R(80,81)                1.4126         estimate D2E/DX2                !
 ! R99   R(80,83)                1.529          estimate D2E/DX2                !
 ! R100  R(81,82)                1.4008         estimate D2E/DX2                !
 ! R101  R(81,85)                1.465          estimate D2E/DX2                !
 ! R102  R(82,101)               1.0879         estimate D2E/DX2                !
 ! R103  R(83,84)                1.5294         estimate D2E/DX2                !
 ! R104  R(83,97)                1.5453         estimate D2E/DX2                !
 ! R105  R(83,98)                1.5452         estimate D2E/DX2                !
 ! R106  R(84,85)                1.421          estimate D2E/DX2                !
 ! R107  R(84,89)                1.3813         estimate D2E/DX2                !
 ! R108  R(85,92)                1.3918         estimate D2E/DX2                !
 ! R109  R(86,87)                1.5294         estimate D2E/DX2                !
 ! R110  R(86,99)                1.5453         estimate D2E/DX2                !
 ! R111  R(86,100)               1.5452         estimate D2E/DX2                !
 ! R112  R(87,88)                1.421          estimate D2E/DX2                !
 ! R113  R(87,93)                1.3813         estimate D2E/DX2                !
 ! R114  R(88,96)                1.3918         estimate D2E/DX2                !
 ! R115  R(89,90)                1.4116         estimate D2E/DX2                !
 ! R116  R(89,105)               1.0878         estimate D2E/DX2                !
 ! R117  R(90,91)                1.4206         estimate D2E/DX2                !
 ! R118  R(90,122)               1.4396         estimate D2E/DX2                !
 ! R119  R(91,92)                1.3981         estimate D2E/DX2                !
 ! R120  R(91,121)               1.7593         estimate D2E/DX2                !
 ! R121  R(92,106)               1.0865         estimate D2E/DX2                !
 ! R122  R(93,94)                1.4116         estimate D2E/DX2                !
 ! R123  R(93,103)               1.0878         estimate D2E/DX2                !
 ! R124  R(94,95)                1.4206         estimate D2E/DX2                !
 ! R125  R(95,96)                1.3981         estimate D2E/DX2                !
 ! R126  R(96,104)               1.0865         estimate D2E/DX2                !
 ! R127  R(97,107)               1.0963         estimate D2E/DX2                !
 ! R128  R(97,108)               1.0963         estimate D2E/DX2                !
 ! R129  R(97,109)               1.0946         estimate D2E/DX2                !
 ! R130  R(98,110)               1.0946         estimate D2E/DX2                !
 ! R131  R(98,111)               1.0962         estimate D2E/DX2                !
 ! R132  R(98,112)               1.0963         estimate D2E/DX2                !
 ! R133  R(99,116)               1.0963         estimate D2E/DX2                !
 ! R134  R(99,117)               1.0963         estimate D2E/DX2                !
 ! R135  R(99,118)               1.0946         estimate D2E/DX2                !
 ! R136  R(100,113)              1.0963         estimate D2E/DX2                !
 ! R137  R(100,114)              1.0946         estimate D2E/DX2                !
 ! R138  R(100,115)              1.0963         estimate D2E/DX2                !
 ! R139  R(119,122)              1.0851         estimate D2E/DX2                !
 ! R140  R(121,123)              1.7517         estimate D2E/DX2                !
 ! R141  R(122,123)              1.3583         estimate D2E/DX2                !
 ! A1    A(2,1,3)              118.094          estimate D2E/DX2                !
 ! A2    A(2,1,62)             121.6261         estimate D2E/DX2                !
 ! A3    A(3,1,62)             116.8402         estimate D2E/DX2                !
 ! A4    A(1,2,4)              126.2504         estimate D2E/DX2                !
 ! A5    A(1,2,10)             120.0658         estimate D2E/DX2                !
 ! A6    A(4,2,10)             113.6838         estimate D2E/DX2                !
 ! A7    A(1,3,8)              119.6369         estimate D2E/DX2                !
 ! A8    A(1,3,9)              121.8405         estimate D2E/DX2                !
 ! A9    A(8,3,9)              118.5227         estimate D2E/DX2                !
 ! A10   A(2,4,6)              106.1244         estimate D2E/DX2                !
 ! A11   A(6,5,10)             106.1244         estimate D2E/DX2                !
 ! A12   A(4,6,5)              100.3833         estimate D2E/DX2                !
 ! A13   A(3,9,7)              118.5234         estimate D2E/DX2                !
 ! A14   A(3,9,11)             121.8399         estimate D2E/DX2                !
 ! A15   A(7,9,11)             119.6366         estimate D2E/DX2                !
 ! A16   A(2,10,5)             113.6842         estimate D2E/DX2                !
 ! A17   A(2,10,11)            120.0656         estimate D2E/DX2                !
 ! A18   A(5,10,11)            126.2502         estimate D2E/DX2                !
 ! A19   A(9,11,10)            118.0942         estimate D2E/DX2                !
 ! A20   A(9,11,12)            122.2867         estimate D2E/DX2                !
 ! A21   A(10,11,12)           119.6191         estimate D2E/DX2                !
 ! A22   A(14,13,15)           113.0704         estimate D2E/DX2                !
 ! A23   A(14,13,73)           114.195          estimate D2E/DX2                !
 ! A24   A(15,13,73)           132.5545         estimate D2E/DX2                !
 ! A25   A(13,14,33)           113.1625         estimate D2E/DX2                !
 ! A26   A(13,14,59)           123.4466         estimate D2E/DX2                !
 ! A27   A(33,14,59)           123.3909         estimate D2E/DX2                !
 ! A28   A(13,15,34)            90.9694         estimate D2E/DX2                !
 ! A29   A(17,16,21)           120.7282         estimate D2E/DX2                !
 ! A30   A(17,16,25)           110.9557         estimate D2E/DX2                !
 ! A31   A(21,16,25)           128.3161         estimate D2E/DX2                !
 ! A32   A(16,17,18)           121.0052         estimate D2E/DX2                !
 ! A33   A(16,17,27)           108.5913         estimate D2E/DX2                !
 ! A34   A(18,17,27)           130.4035         estimate D2E/DX2                !
 ! A35   A(17,18,19)           118.2662         estimate D2E/DX2                !
 ! A36   A(17,18,41)           120.7062         estimate D2E/DX2                !
 ! A37   A(19,18,41)           121.0276         estimate D2E/DX2                !
 ! A38   A(18,19,20)           120.7281         estimate D2E/DX2                !
 ! A39   A(18,19,22)           128.3173         estimate D2E/DX2                !
 ! A40   A(20,19,22)           110.9546         estimate D2E/DX2                !
 ! A41   A(19,20,21)           121.0062         estimate D2E/DX2                !
 ! A42   A(19,20,24)           108.5936         estimate D2E/DX2                !
 ! A43   A(21,20,24)           130.4002         estimate D2E/DX2                !
 ! A44   A(16,21,20)           118.266          estimate D2E/DX2                !
 ! A45   A(16,21,40)           121.0277         estimate D2E/DX2                !
 ! A46   A(20,21,40)           120.7063         estimate D2E/DX2                !
 ! A47   A(19,22,23)           101.35           estimate D2E/DX2                !
 ! A48   A(19,22,36)           111.3045         estimate D2E/DX2                !
 ! A49   A(19,22,37)           111.3293         estimate D2E/DX2                !
 ! A50   A(23,22,36)           111.3441         estimate D2E/DX2                !
 ! A51   A(23,22,37)           111.3729         estimate D2E/DX2                !
 ! A52   A(36,22,37)           109.9164         estimate D2E/DX2                !
 ! A53   A(22,23,24)           110.6247         estimate D2E/DX2                !
 ! A54   A(22,23,28)           128.44           estimate D2E/DX2                !
 ! A55   A(24,23,28)           120.9353         estimate D2E/DX2                !
 ! A56   A(20,24,23)           108.4771         estimate D2E/DX2                !
 ! A57   A(20,24,31)           130.2482         estimate D2E/DX2                !
 ! A58   A(23,24,31)           121.2747         estimate D2E/DX2                !
 ! A59   A(16,25,26)           101.3504         estimate D2E/DX2                !
 ! A60   A(16,25,38)           111.3039         estimate D2E/DX2                !
 ! A61   A(16,25,39)           111.3307         estimate D2E/DX2                !
 ! A62   A(26,25,38)           111.345          estimate D2E/DX2                !
 ! A63   A(26,25,39)           111.3724         estimate D2E/DX2                !
 ! A64   A(38,25,39)           109.915          estimate D2E/DX2                !
 ! A65   A(25,26,27)           110.6244         estimate D2E/DX2                !
 ! A66   A(25,26,32)           128.4388         estimate D2E/DX2                !
 ! A67   A(27,26,32)           120.9368         estimate D2E/DX2                !
 ! A68   A(17,27,26)           108.4782         estimate D2E/DX2                !
 ! A69   A(17,27,35)           130.2498         estimate D2E/DX2                !
 ! A70   A(26,27,35)           121.272          estimate D2E/DX2                !
 ! A71   A(23,28,29)           119.0052         estimate D2E/DX2                !
 ! A72   A(23,28,44)           121.346          estimate D2E/DX2                !
 ! A73   A(29,28,44)           119.6488         estimate D2E/DX2                !
 ! A74   A(28,29,30)           119.1597         estimate D2E/DX2                !
 ! A75   A(28,29,61)           128.9862         estimate D2E/DX2                !
 ! A76   A(30,29,61)           111.8541         estimate D2E/DX2                !
 ! A77   A(29,30,31)           122.1917         estimate D2E/DX2                !
 ! A78   A(29,30,60)           110.9439         estimate D2E/DX2                !
 ! A79   A(31,30,60)           126.8644         estimate D2E/DX2                !
 ! A80   A(24,31,30)           117.4334         estimate D2E/DX2                !
 ! A81   A(24,31,45)           121.4782         estimate D2E/DX2                !
 ! A82   A(30,31,45)           121.0885         estimate D2E/DX2                !
 ! A83   A(26,32,33)           119.0058         estimate D2E/DX2                !
 ! A84   A(26,32,42)           121.3469         estimate D2E/DX2                !
 ! A85   A(33,32,42)           119.6474         estimate D2E/DX2                !
 ! A86   A(14,33,32)           128.9871         estimate D2E/DX2                !
 ! A87   A(14,33,34)           111.8539         estimate D2E/DX2                !
 ! A88   A(32,33,34)           119.1589         estimate D2E/DX2                !
 ! A89   A(15,34,33)           110.9438         estimate D2E/DX2                !
 ! A90   A(15,34,35)           126.8649         estimate D2E/DX2                !
 ! A91   A(33,34,35)           122.1914         estimate D2E/DX2                !
 ! A92   A(27,35,34)           117.4352         estimate D2E/DX2                !
 ! A93   A(27,35,43)           121.4766         estimate D2E/DX2                !
 ! A94   A(34,35,43)           121.0882         estimate D2E/DX2                !
 ! A95   A(22,36,46)           110.7184         estimate D2E/DX2                !
 ! A96   A(22,36,47)           110.6952         estimate D2E/DX2                !
 ! A97   A(22,36,48)           111.1032         estimate D2E/DX2                !
 ! A98   A(46,36,47)           107.8345         estimate D2E/DX2                !
 ! A99   A(46,36,48)           108.1895         estimate D2E/DX2                !
 ! A100  A(47,36,48)           108.1828         estimate D2E/DX2                !
 ! A101  A(22,37,49)           111.1006         estimate D2E/DX2                !
 ! A102  A(22,37,50)           110.689          estimate D2E/DX2                !
 ! A103  A(22,37,51)           110.7139         estimate D2E/DX2                !
 ! A104  A(49,37,50)           108.1912         estimate D2E/DX2                !
 ! A105  A(49,37,51)           108.1952         estimate D2E/DX2                !
 ! A106  A(50,37,51)           107.8343         estimate D2E/DX2                !
 ! A107  A(25,38,55)           110.7166         estimate D2E/DX2                !
 ! A108  A(25,38,56)           110.695          estimate D2E/DX2                !
 ! A109  A(25,38,57)           111.1019         estimate D2E/DX2                !
 ! A110  A(55,38,56)           107.8354         estimate D2E/DX2                !
 ! A111  A(55,38,57)           108.1908         estimate D2E/DX2                !
 ! A112  A(56,38,57)           108.184          estimate D2E/DX2                !
 ! A113  A(25,39,52)           110.7136         estimate D2E/DX2                !
 ! A114  A(25,39,53)           111.1016         estimate D2E/DX2                !
 ! A115  A(25,39,54)           110.6899         estimate D2E/DX2                !
 ! A116  A(52,39,53)           108.1941         estimate D2E/DX2                !
 ! A117  A(52,39,54)           107.8346         estimate D2E/DX2                !
 ! A118  A(53,39,54)           108.1904         estimate D2E/DX2                !
 ! A119  A(30,60,62)            90.9687         estimate D2E/DX2                !
 ! A120  A(29,61,58)           123.3909         estimate D2E/DX2                !
 ! A121  A(29,61,62)           113.1625         estimate D2E/DX2                !
 ! A122  A(58,61,62)           123.4466         estimate D2E/DX2                !
 ! A123  A(1,62,60)            128.6393         estimate D2E/DX2                !
 ! A124  A(1,62,61)            115.6835         estimate D2E/DX2                !
 ! A125  A(60,62,61)           113.0709         estimate D2E/DX2                !
 ! A126  A(64,63,65)           118.094          estimate D2E/DX2                !
 ! A127  A(64,63,123)          119.6191         estimate D2E/DX2                !
 ! A128  A(65,63,123)          122.2869         estimate D2E/DX2                !
 ! A129  A(63,64,66)           126.2504         estimate D2E/DX2                !
 ! A130  A(63,64,72)           120.0658         estimate D2E/DX2                !
 ! A131  A(66,64,72)           113.6838         estimate D2E/DX2                !
 ! A132  A(63,65,70)           119.6369         estimate D2E/DX2                !
 ! A133  A(63,65,71)           121.8405         estimate D2E/DX2                !
 ! A134  A(70,65,71)           118.5227         estimate D2E/DX2                !
 ! A135  A(64,66,68)           106.1244         estimate D2E/DX2                !
 ! A136  A(68,67,72)           106.1244         estimate D2E/DX2                !
 ! A137  A(66,68,67)           100.3833         estimate D2E/DX2                !
 ! A138  A(65,71,69)           118.5234         estimate D2E/DX2                !
 ! A139  A(65,71,73)           121.8399         estimate D2E/DX2                !
 ! A140  A(69,71,73)           119.6366         estimate D2E/DX2                !
 ! A141  A(64,72,67)           113.6841         estimate D2E/DX2                !
 ! A142  A(64,72,73)           120.0656         estimate D2E/DX2                !
 ! A143  A(67,72,73)           126.2502         estimate D2E/DX2                !
 ! A144  A(13,73,71)           121.6217         estimate D2E/DX2                !
 ! A145  A(13,73,72)           120.2241         estimate D2E/DX2                !
 ! A146  A(71,73,72)           118.0942         estimate D2E/DX2                !
 ! A147  A(75,74,76)           113.0704         estimate D2E/DX2                !
 ! A148  A(75,74,124)          127.7178         estimate D2E/DX2                !
 ! A149  A(76,74,124)          119.2119         estimate D2E/DX2                !
 ! A150  A(74,75,94)           113.1625         estimate D2E/DX2                !
 ! A151  A(74,75,120)          123.4466         estimate D2E/DX2                !
 ! A152  A(94,75,120)          123.3909         estimate D2E/DX2                !
 ! A153  A(74,76,95)            90.9694         estimate D2E/DX2                !
 ! A154  A(78,77,82)           120.7282         estimate D2E/DX2                !
 ! A155  A(78,77,86)           110.9557         estimate D2E/DX2                !
 ! A156  A(82,77,86)           128.3161         estimate D2E/DX2                !
 ! A157  A(77,78,79)           121.0052         estimate D2E/DX2                !
 ! A158  A(77,78,88)           108.5913         estimate D2E/DX2                !
 ! A159  A(79,78,88)           130.4035         estimate D2E/DX2                !
 ! A160  A(78,79,80)           118.2662         estimate D2E/DX2                !
 ! A161  A(78,79,102)          120.7062         estimate D2E/DX2                !
 ! A162  A(80,79,102)          121.0276         estimate D2E/DX2                !
 ! A163  A(79,80,81)           120.7281         estimate D2E/DX2                !
 ! A164  A(79,80,83)           128.3173         estimate D2E/DX2                !
 ! A165  A(81,80,83)           110.9546         estimate D2E/DX2                !
 ! A166  A(80,81,82)           121.0062         estimate D2E/DX2                !
 ! A167  A(80,81,85)           108.5936         estimate D2E/DX2                !
 ! A168  A(82,81,85)           130.4002         estimate D2E/DX2                !
 ! A169  A(77,82,81)           118.266          estimate D2E/DX2                !
 ! A170  A(77,82,101)          121.0277         estimate D2E/DX2                !
 ! A171  A(81,82,101)          120.7063         estimate D2E/DX2                !
 ! A172  A(80,83,84)           101.35           estimate D2E/DX2                !
 ! A173  A(80,83,97)           111.3046         estimate D2E/DX2                !
 ! A174  A(80,83,98)           111.3293         estimate D2E/DX2                !
 ! A175  A(84,83,97)           111.3441         estimate D2E/DX2                !
 ! A176  A(84,83,98)           111.3729         estimate D2E/DX2                !
 ! A177  A(97,83,98)           109.9164         estimate D2E/DX2                !
 ! A178  A(83,84,85)           110.6247         estimate D2E/DX2                !
 ! A179  A(83,84,89)           128.44           estimate D2E/DX2                !
 ! A180  A(85,84,89)           120.9353         estimate D2E/DX2                !
 ! A181  A(81,85,84)           108.4771         estimate D2E/DX2                !
 ! A182  A(81,85,92)           130.2482         estimate D2E/DX2                !
 ! A183  A(84,85,92)           121.2747         estimate D2E/DX2                !
 ! A184  A(77,86,87)           101.3504         estimate D2E/DX2                !
 ! A185  A(77,86,99)           111.3039         estimate D2E/DX2                !
 ! A186  A(77,86,100)          111.3307         estimate D2E/DX2                !
 ! A187  A(87,86,99)           111.345          estimate D2E/DX2                !
 ! A188  A(87,86,100)          111.3724         estimate D2E/DX2                !
 ! A189  A(99,86,100)          109.915          estimate D2E/DX2                !
 ! A190  A(86,87,88)           110.6244         estimate D2E/DX2                !
 ! A191  A(86,87,93)           128.4388         estimate D2E/DX2                !
 ! A192  A(88,87,93)           120.9368         estimate D2E/DX2                !
 ! A193  A(78,88,87)           108.4782         estimate D2E/DX2                !
 ! A194  A(78,88,96)           130.2498         estimate D2E/DX2                !
 ! A195  A(87,88,96)           121.272          estimate D2E/DX2                !
 ! A196  A(84,89,90)           119.0052         estimate D2E/DX2                !
 ! A197  A(84,89,105)          121.346          estimate D2E/DX2                !
 ! A198  A(90,89,105)          119.6488         estimate D2E/DX2                !
 ! A199  A(89,90,91)           119.1597         estimate D2E/DX2                !
 ! A200  A(89,90,122)          128.9862         estimate D2E/DX2                !
 ! A201  A(91,90,122)          111.8541         estimate D2E/DX2                !
 ! A202  A(90,91,92)           122.1917         estimate D2E/DX2                !
 ! A203  A(90,91,121)          110.9439         estimate D2E/DX2                !
 ! A204  A(92,91,121)          126.8644         estimate D2E/DX2                !
 ! A205  A(85,92,91)           117.4334         estimate D2E/DX2                !
 ! A206  A(85,92,106)          121.4782         estimate D2E/DX2                !
 ! A207  A(91,92,106)          121.0885         estimate D2E/DX2                !
 ! A208  A(87,93,94)           119.0058         estimate D2E/DX2                !
 ! A209  A(87,93,103)          121.3469         estimate D2E/DX2                !
 ! A210  A(94,93,103)          119.6474         estimate D2E/DX2                !
 ! A211  A(75,94,93)           128.9871         estimate D2E/DX2                !
 ! A212  A(75,94,95)           111.8539         estimate D2E/DX2                !
 ! A213  A(93,94,95)           119.159          estimate D2E/DX2                !
 ! A214  A(76,95,94)           110.9438         estimate D2E/DX2                !
 ! A215  A(76,95,96)           126.8649         estimate D2E/DX2                !
 ! A216  A(94,95,96)           122.1914         estimate D2E/DX2                !
 ! A217  A(88,96,95)           117.4352         estimate D2E/DX2                !
 ! A218  A(88,96,104)          121.4766         estimate D2E/DX2                !
 ! A219  A(95,96,104)          121.0882         estimate D2E/DX2                !
 ! A220  A(83,97,107)          110.7184         estimate D2E/DX2                !
 ! A221  A(83,97,108)          110.6952         estimate D2E/DX2                !
 ! A222  A(83,97,109)          111.1032         estimate D2E/DX2                !
 ! A223  A(107,97,108)         107.8345         estimate D2E/DX2                !
 ! A224  A(107,97,109)         108.1895         estimate D2E/DX2                !
 ! A225  A(108,97,109)         108.1828         estimate D2E/DX2                !
 ! A226  A(83,98,110)          111.1006         estimate D2E/DX2                !
 ! A227  A(83,98,111)          110.689          estimate D2E/DX2                !
 ! A228  A(83,98,112)          110.7139         estimate D2E/DX2                !
 ! A229  A(110,98,111)         108.1912         estimate D2E/DX2                !
 ! A230  A(110,98,112)         108.1951         estimate D2E/DX2                !
 ! A231  A(111,98,112)         107.8343         estimate D2E/DX2                !
 ! A232  A(86,99,116)          110.7166         estimate D2E/DX2                !
 ! A233  A(86,99,117)          110.695          estimate D2E/DX2                !
 ! A234  A(86,99,118)          111.1019         estimate D2E/DX2                !
 ! A235  A(116,99,117)         107.8354         estimate D2E/DX2                !
 ! A236  A(116,99,118)         108.1908         estimate D2E/DX2                !
 ! A237  A(117,99,118)         108.184          estimate D2E/DX2                !
 ! A238  A(86,100,113)         110.7136         estimate D2E/DX2                !
 ! A239  A(86,100,114)         111.1016         estimate D2E/DX2                !
 ! A240  A(86,100,115)         110.6899         estimate D2E/DX2                !
 ! A241  A(113,100,114)        108.1941         estimate D2E/DX2                !
 ! A242  A(113,100,115)        107.8346         estimate D2E/DX2                !
 ! A243  A(114,100,115)        108.1904         estimate D2E/DX2                !
 ! A244  A(91,121,123)          90.9687         estimate D2E/DX2                !
 ! A245  A(90,122,119)         123.3909         estimate D2E/DX2                !
 ! A246  A(90,122,123)         113.1625         estimate D2E/DX2                !
 ! A247  A(119,122,123)        123.4466         estimate D2E/DX2                !
 ! A248  A(63,123,121)         122.3575         estimate D2E/DX2                !
 ! A249  A(63,123,122)         124.565          estimate D2E/DX2                !
 ! A250  A(121,123,122)        113.0709         estimate D2E/DX2                !
 ! D1    D(3,1,2,4)           -180.0            estimate D2E/DX2                !
 ! D2    D(3,1,2,10)             0.0            estimate D2E/DX2                !
 ! D3    D(62,1,2,4)            21.5941         estimate D2E/DX2                !
 ! D4    D(62,1,2,10)         -158.4059         estimate D2E/DX2                !
 ! D5    D(2,1,3,8)           -180.0            estimate D2E/DX2                !
 ! D6    D(2,1,3,9)              0.0            estimate D2E/DX2                !
 ! D7    D(62,1,3,8)           -20.5612         estimate D2E/DX2                !
 ! D8    D(62,1,3,9)           159.4388         estimate D2E/DX2                !
 ! D9    D(2,1,62,60)          154.0825         estimate D2E/DX2                !
 ! D10   D(2,1,62,61)          -45.6734         estimate D2E/DX2                !
 ! D11   D(3,1,62,60)           -4.5797         estimate D2E/DX2                !
 ! D12   D(3,1,62,61)          155.6644         estimate D2E/DX2                !
 ! D13   D(1,2,4,6)            180.0            estimate D2E/DX2                !
 ! D14   D(10,2,4,6)             0.0            estimate D2E/DX2                !
 ! D15   D(1,2,10,5)          -180.0            estimate D2E/DX2                !
 ! D16   D(1,2,10,11)            0.0            estimate D2E/DX2                !
 ! D17   D(4,2,10,5)             0.0            estimate D2E/DX2                !
 ! D18   D(4,2,10,11)          180.0            estimate D2E/DX2                !
 ! D19   D(1,3,9,7)           -180.0            estimate D2E/DX2                !
 ! D20   D(1,3,9,11)             0.0            estimate D2E/DX2                !
 ! D21   D(8,3,9,7)              0.0            estimate D2E/DX2                !
 ! D22   D(8,3,9,11)           180.0            estimate D2E/DX2                !
 ! D23   D(2,4,6,5)              0.0            estimate D2E/DX2                !
 ! D24   D(10,5,6,4)             0.0            estimate D2E/DX2                !
 ! D25   D(6,5,10,2)             0.0            estimate D2E/DX2                !
 ! D26   D(6,5,10,11)          180.0            estimate D2E/DX2                !
 ! D27   D(3,9,11,10)            0.0            estimate D2E/DX2                !
 ! D28   D(3,9,11,12)          180.0            estimate D2E/DX2                !
 ! D29   D(7,9,11,10)          180.0            estimate D2E/DX2                !
 ! D30   D(7,9,11,12)            0.0            estimate D2E/DX2                !
 ! D31   D(2,10,11,9)            0.0            estimate D2E/DX2                !
 ! D32   D(2,10,11,12)        -180.0            estimate D2E/DX2                !
 ! D33   D(5,10,11,9)          180.0            estimate D2E/DX2                !
 ! D34   D(5,10,11,12)           0.0            estimate D2E/DX2                !
 ! D35   D(15,13,14,33)         -0.0024         estimate D2E/DX2                !
 ! D36   D(15,13,14,59)        179.9959         estimate D2E/DX2                !
 ! D37   D(73,13,14,33)       -175.7478         estimate D2E/DX2                !
 ! D38   D(73,13,14,59)          4.2506         estimate D2E/DX2                !
 ! D39   D(14,13,15,34)          0.0111         estimate D2E/DX2                !
 ! D40   D(73,13,15,34)        174.74           estimate D2E/DX2                !
 ! D41   D(14,13,73,71)         29.3204         estimate D2E/DX2                !
 ! D42   D(14,13,73,72)       -147.8094         estimate D2E/DX2                !
 ! D43   D(15,13,73,71)       -145.363          estimate D2E/DX2                !
 ! D44   D(15,13,73,72)         37.5072         estimate D2E/DX2                !
 ! D45   D(13,14,33,32)        179.9963         estimate D2E/DX2                !
 ! D46   D(13,14,33,34)         -0.0105         estimate D2E/DX2                !
 ! D47   D(59,14,33,32)         -0.002          estimate D2E/DX2                !
 ! D48   D(59,14,33,34)        179.9912         estimate D2E/DX2                !
 ! D49   D(13,15,34,33)         -0.0167         estimate D2E/DX2                !
 ! D50   D(13,15,34,35)       -179.9914         estimate D2E/DX2                !
 ! D51   D(21,16,17,18)         -0.0077         estimate D2E/DX2                !
 ! D52   D(21,16,17,27)        179.9931         estimate D2E/DX2                !
 ! D53   D(25,16,17,18)        179.9864         estimate D2E/DX2                !
 ! D54   D(25,16,17,27)         -0.0128         estimate D2E/DX2                !
 ! D55   D(17,16,21,20)          0.0098         estimate D2E/DX2                !
 ! D56   D(17,16,21,40)       -179.9781         estimate D2E/DX2                !
 ! D57   D(25,16,21,20)       -179.9831         estimate D2E/DX2                !
 ! D58   D(25,16,21,40)          0.0289         estimate D2E/DX2                !
 ! D59   D(17,16,25,26)          0.0075         estimate D2E/DX2                !
 ! D60   D(17,16,25,38)        118.4809         estimate D2E/DX2                !
 ! D61   D(17,16,25,39)       -118.5096         estimate D2E/DX2                !
 ! D62   D(21,16,25,26)       -179.999          estimate D2E/DX2                !
 ! D63   D(21,16,25,38)        -61.5255         estimate D2E/DX2                !
 ! D64   D(21,16,25,39)         61.4839         estimate D2E/DX2                !
 ! D65   D(16,17,18,19)         -0.0028         estimate D2E/DX2                !
 ! D66   D(16,17,18,41)        179.99           estimate D2E/DX2                !
 ! D67   D(27,17,18,19)        179.9962         estimate D2E/DX2                !
 ! D68   D(27,17,18,41)         -0.011          estimate D2E/DX2                !
 ! D69   D(16,17,27,26)          0.013          estimate D2E/DX2                !
 ! D70   D(16,17,27,35)       -179.985          estimate D2E/DX2                !
 ! D71   D(18,17,27,26)       -179.986          estimate D2E/DX2                !
 ! D72   D(18,17,27,35)          0.016          estimate D2E/DX2                !
 ! D73   D(17,18,19,20)          0.0108         estimate D2E/DX2                !
 ! D74   D(17,18,19,22)       -179.9839         estimate D2E/DX2                !
 ! D75   D(41,18,19,20)       -179.982          estimate D2E/DX2                !
 ! D76   D(41,18,19,22)          0.0233         estimate D2E/DX2                !
 ! D77   D(18,19,20,21)         -0.0087         estimate D2E/DX2                !
 ! D78   D(18,19,20,24)        179.9978         estimate D2E/DX2                !
 ! D79   D(22,19,20,21)        179.9868         estimate D2E/DX2                !
 ! D80   D(22,19,20,24)         -0.0066         estimate D2E/DX2                !
 ! D81   D(18,19,22,23)       -179.9936         estimate D2E/DX2                !
 ! D82   D(18,19,22,36)        -61.5211         estimate D2E/DX2                !
 ! D83   D(18,19,22,37)         61.4896         estimate D2E/DX2                !
 ! D84   D(20,19,22,23)          0.0113         estimate D2E/DX2                !
 ! D85   D(20,19,22,36)        118.4838         estimate D2E/DX2                !
 ! D86   D(20,19,22,37)       -118.5055         estimate D2E/DX2                !
 ! D87   D(19,20,21,16)         -0.0018         estimate D2E/DX2                !
 ! D88   D(19,20,21,40)        179.9862         estimate D2E/DX2                !
 ! D89   D(24,20,21,16)        179.99           estimate D2E/DX2                !
 ! D90   D(24,20,21,40)         -0.022          estimate D2E/DX2                !
 ! D91   D(19,20,24,23)         -0.0016         estimate D2E/DX2                !
 ! D92   D(19,20,24,31)       -179.984          estimate D2E/DX2                !
 ! D93   D(21,20,24,23)       -179.9942         estimate D2E/DX2                !
 ! D94   D(21,20,24,31)          0.0233         estimate D2E/DX2                !
 ! D95   D(19,22,23,24)         -0.0123         estimate D2E/DX2                !
 ! D96   D(19,22,23,28)        179.9964         estimate D2E/DX2                !
 ! D97   D(36,22,23,24)       -118.4562         estimate D2E/DX2                !
 ! D98   D(36,22,23,28)         61.5524         estimate D2E/DX2                !
 ! D99   D(37,22,23,24)        118.4731         estimate D2E/DX2                !
 ! D100  D(37,22,23,28)        -61.5182         estimate D2E/DX2                !
 ! D101  D(19,22,36,46)         63.9966         estimate D2E/DX2                !
 ! D102  D(19,22,36,47)       -176.4709         estimate D2E/DX2                !
 ! D103  D(19,22,36,48)        -56.2491         estimate D2E/DX2                !
 ! D104  D(23,22,36,46)        176.2797         estimate D2E/DX2                !
 ! D105  D(23,22,36,47)        -64.1878         estimate D2E/DX2                !
 ! D106  D(23,22,36,48)         56.034          estimate D2E/DX2                !
 ! D107  D(37,22,36,46)        -59.8202         estimate D2E/DX2                !
 ! D108  D(37,22,36,47)         59.7124         estimate D2E/DX2                !
 ! D109  D(37,22,36,48)        179.9342         estimate D2E/DX2                !
 ! D110  D(19,22,37,49)         56.2335         estimate D2E/DX2                !
 ! D111  D(19,22,37,50)        176.4601         estimate D2E/DX2                !
 ! D112  D(19,22,37,51)        -64.0146         estimate D2E/DX2                !
 ! D113  D(23,22,37,49)        -56.0808         estimate D2E/DX2                !
 ! D114  D(23,22,37,50)         64.1458         estimate D2E/DX2                !
 ! D115  D(23,22,37,51)       -176.3289         estimate D2E/DX2                !
 ! D116  D(36,22,37,49)       -179.9641         estimate D2E/DX2                !
 ! D117  D(36,22,37,50)        -59.7376         estimate D2E/DX2                !
 ! D118  D(36,22,37,51)         59.7878         estimate D2E/DX2                !
 ! D119  D(22,23,24,20)          0.0091         estimate D2E/DX2                !
 ! D120  D(22,23,24,31)        179.9935         estimate D2E/DX2                !
 ! D121  D(28,23,24,20)       -179.9987         estimate D2E/DX2                !
 ! D122  D(28,23,24,31)         -0.0144         estimate D2E/DX2                !
 ! D123  D(22,23,28,29)        179.9935         estimate D2E/DX2                !
 ! D124  D(22,23,28,44)          0.0022         estimate D2E/DX2                !
 ! D125  D(24,23,28,29)          0.0029         estimate D2E/DX2                !
 ! D126  D(24,23,28,44)       -179.9884         estimate D2E/DX2                !
 ! D127  D(20,24,31,30)        179.9953         estimate D2E/DX2                !
 ! D128  D(20,24,31,45)          0.0032         estimate D2E/DX2                !
 ! D129  D(23,24,31,30)          0.0147         estimate D2E/DX2                !
 ! D130  D(23,24,31,45)       -179.9773         estimate D2E/DX2                !
 ! D131  D(16,25,26,27)          0.0007         estimate D2E/DX2                !
 ! D132  D(16,25,26,32)       -179.9914         estimate D2E/DX2                !
 ! D133  D(38,25,26,27)       -118.4432         estimate D2E/DX2                !
 ! D134  D(38,25,26,32)         61.5647         estimate D2E/DX2                !
 ! D135  D(39,25,26,27)        118.4878         estimate D2E/DX2                !
 ! D136  D(39,25,26,32)        -61.5044         estimate D2E/DX2                !
 ! D137  D(16,25,38,55)         63.9846         estimate D2E/DX2                !
 ! D138  D(16,25,38,56)       -176.483          estimate D2E/DX2                !
 ! D139  D(16,25,38,57)        -56.2607         estimate D2E/DX2                !
 ! D140  D(26,25,38,55)        176.2684         estimate D2E/DX2                !
 ! D141  D(26,25,38,56)        -64.1992         estimate D2E/DX2                !
 ! D142  D(26,25,38,57)         56.0231         estimate D2E/DX2                !
 ! D143  D(39,25,38,55)        -59.8325         estimate D2E/DX2                !
 ! D144  D(39,25,38,56)         59.6999         estimate D2E/DX2                !
 ! D145  D(39,25,38,57)        179.9222         estimate D2E/DX2                !
 ! D146  D(16,25,39,52)        -64.0204         estimate D2E/DX2                !
 ! D147  D(16,25,39,53)         56.2268         estimate D2E/DX2                !
 ! D148  D(16,25,39,54)        176.4535         estimate D2E/DX2                !
 ! D149  D(26,25,39,52)       -176.3357         estimate D2E/DX2                !
 ! D150  D(26,25,39,53)        -56.0885         estimate D2E/DX2                !
 ! D151  D(26,25,39,54)         64.1382         estimate D2E/DX2                !
 ! D152  D(38,25,39,52)         59.7811         estimate D2E/DX2                !
 ! D153  D(38,25,39,53)       -179.9717         estimate D2E/DX2                !
 ! D154  D(38,25,39,54)        -59.745          estimate D2E/DX2                !
 ! D155  D(25,26,27,17)         -0.0083         estimate D2E/DX2                !
 ! D156  D(25,26,27,35)        179.9899         estimate D2E/DX2                !
 ! D157  D(32,26,27,17)        179.9846         estimate D2E/DX2                !
 ! D158  D(32,26,27,35)         -0.0172         estimate D2E/DX2                !
 ! D159  D(25,26,32,33)        179.9978         estimate D2E/DX2                !
 ! D160  D(25,26,32,42)         -0.0051         estimate D2E/DX2                !
 ! D161  D(27,26,32,33)          0.0063         estimate D2E/DX2                !
 ! D162  D(27,26,32,42)       -179.9966         estimate D2E/DX2                !
 ! D163  D(17,27,35,34)       -179.9891         estimate D2E/DX2                !
 ! D164  D(17,27,35,43)          0.0167         estimate D2E/DX2                !
 ! D165  D(26,27,35,34)          0.0131         estimate D2E/DX2                !
 ! D166  D(26,27,35,43)       -179.981          estimate D2E/DX2                !
 ! D167  D(23,28,29,30)          0.0073         estimate D2E/DX2                !
 ! D168  D(23,28,29,61)       -179.9846         estimate D2E/DX2                !
 ! D169  D(44,28,29,30)        179.9988         estimate D2E/DX2                !
 ! D170  D(44,28,29,61)          0.0069         estimate D2E/DX2                !
 ! D171  D(28,29,30,31)         -0.0067         estimate D2E/DX2                !
 ! D172  D(28,29,30,60)       -179.9972         estimate D2E/DX2                !
 ! D173  D(61,29,30,31)        179.9865         estimate D2E/DX2                !
 ! D174  D(61,29,30,60)         -0.004          estimate D2E/DX2                !
 ! D175  D(28,29,61,58)         -0.0056         estimate D2E/DX2                !
 ! D176  D(28,29,61,62)       -179.9913         estimate D2E/DX2                !
 ! D177  D(30,29,61,58)       -179.998          estimate D2E/DX2                !
 ! D178  D(30,29,61,62)          0.0163         estimate D2E/DX2                !
 ! D179  D(29,30,31,24)         -0.0043         estimate D2E/DX2                !
 ! D180  D(29,30,31,45)        179.9877         estimate D2E/DX2                !
 ! D181  D(60,30,31,24)        179.9846         estimate D2E/DX2                !
 ! D182  D(60,30,31,45)         -0.0234         estimate D2E/DX2                !
 ! D183  D(29,30,60,62)         -0.0064         estimate D2E/DX2                !
 ! D184  D(31,30,60,62)       -179.9963         estimate D2E/DX2                !
 ! D185  D(26,32,33,14)       -179.9997         estimate D2E/DX2                !
 ! D186  D(26,32,33,34)          0.0076         estimate D2E/DX2                !
 ! D187  D(42,32,33,14)          0.0032         estimate D2E/DX2                !
 ! D188  D(42,32,33,34)       -179.9896         estimate D2E/DX2                !
 ! D189  D(14,33,34,15)          0.0184         estimate D2E/DX2                !
 ! D190  D(14,33,34,35)        179.9945         estimate D2E/DX2                !
 ! D191  D(32,33,34,15)       -179.9876         estimate D2E/DX2                !
 ! D192  D(32,33,34,35)         -0.0116         estimate D2E/DX2                !
 ! D193  D(15,34,35,27)        179.9732         estimate D2E/DX2                !
 ! D194  D(15,34,35,43)         -0.0326         estimate D2E/DX2                !
 ! D195  D(33,34,35,27)          0.0011         estimate D2E/DX2                !
 ! D196  D(33,34,35,43)        179.9953         estimate D2E/DX2                !
 ! D197  D(30,60,62,1)         160.6806         estimate D2E/DX2                !
 ! D198  D(30,60,62,61)          0.0161         estimate D2E/DX2                !
 ! D199  D(29,61,62,1)        -163.3447         estimate D2E/DX2                !
 ! D200  D(29,61,62,60)         -0.0214         estimate D2E/DX2                !
 ! D201  D(58,61,62,1)          16.6697         estimate D2E/DX2                !
 ! D202  D(58,61,62,60)        179.9929         estimate D2E/DX2                !
 ! D203  D(65,63,64,66)        180.0            estimate D2E/DX2                !
 ! D204  D(65,63,64,72)          0.0            estimate D2E/DX2                !
 ! D205  D(123,63,64,66)         0.0            estimate D2E/DX2                !
 ! D206  D(123,63,64,72)      -180.0            estimate D2E/DX2                !
 ! D207  D(64,63,65,70)       -180.0            estimate D2E/DX2                !
 ! D208  D(64,63,65,71)          0.0            estimate D2E/DX2                !
 ! D209  D(123,63,65,70)         0.0            estimate D2E/DX2                !
 ! D210  D(123,63,65,71)       180.0            estimate D2E/DX2                !
 ! D211  D(64,63,123,121)      146.9978         estimate D2E/DX2                !
 ! D212  D(64,63,123,122)      -31.9973         estimate D2E/DX2                !
 ! D213  D(65,63,123,121)      -33.0022         estimate D2E/DX2                !
 ! D214  D(65,63,123,122)      148.0027         estimate D2E/DX2                !
 ! D215  D(63,64,66,68)       -180.0            estimate D2E/DX2                !
 ! D216  D(72,64,66,68)          0.0            estimate D2E/DX2                !
 ! D217  D(63,64,72,67)       -180.0            estimate D2E/DX2                !
 ! D218  D(63,64,72,73)          0.0            estimate D2E/DX2                !
 ! D219  D(66,64,72,67)          0.0            estimate D2E/DX2                !
 ! D220  D(66,64,72,73)        180.0            estimate D2E/DX2                !
 ! D221  D(63,65,71,69)       -180.0            estimate D2E/DX2                !
 ! D222  D(63,65,71,73)          0.0            estimate D2E/DX2                !
 ! D223  D(70,65,71,69)          0.0            estimate D2E/DX2                !
 ! D224  D(70,65,71,73)        180.0            estimate D2E/DX2                !
 ! D225  D(64,66,68,67)          0.0            estimate D2E/DX2                !
 ! D226  D(72,67,68,66)          0.0            estimate D2E/DX2                !
 ! D227  D(68,67,72,64)          0.0            estimate D2E/DX2                !
 ! D228  D(68,67,72,73)       -180.0            estimate D2E/DX2                !
 ! D229  D(65,71,73,13)       -177.1888         estimate D2E/DX2                !
 ! D230  D(65,71,73,72)          0.0            estimate D2E/DX2                !
 ! D231  D(69,71,73,13)          2.8112         estimate D2E/DX2                !
 ! D232  D(69,71,73,72)        180.0            estimate D2E/DX2                !
 ! D233  D(64,72,73,13)        177.2296         estimate D2E/DX2                !
 ! D234  D(64,72,73,71)          0.0            estimate D2E/DX2                !
 ! D235  D(67,72,73,13)         -2.7704         estimate D2E/DX2                !
 ! D236  D(67,72,73,71)        180.0            estimate D2E/DX2                !
 ! D237  D(76,74,75,94)         -0.0024         estimate D2E/DX2                !
 ! D238  D(76,74,75,120)       179.9959         estimate D2E/DX2                !
 ! D239  D(124,74,75,94)      -179.9948         estimate D2E/DX2                !
 ! D240  D(124,74,75,120)        0.0035         estimate D2E/DX2                !
 ! D241  D(75,74,76,95)          0.0111         estimate D2E/DX2                !
 ! D242  D(124,74,76,95)      -179.9958         estimate D2E/DX2                !
 ! D243  D(74,75,94,93)        179.9963         estimate D2E/DX2                !
 ! D244  D(74,75,94,95)         -0.0105         estimate D2E/DX2                !
 ! D245  D(120,75,94,93)        -0.002          estimate D2E/DX2                !
 ! D246  D(120,75,94,95)       179.9912         estimate D2E/DX2                !
 ! D247  D(74,76,95,94)         -0.0167         estimate D2E/DX2                !
 ! D248  D(74,76,95,96)       -179.9914         estimate D2E/DX2                !
 ! D249  D(82,77,78,79)         -0.0077         estimate D2E/DX2                !
 ! D250  D(82,77,78,88)        179.9931         estimate D2E/DX2                !
 ! D251  D(86,77,78,79)        179.9864         estimate D2E/DX2                !
 ! D252  D(86,77,78,88)         -0.0128         estimate D2E/DX2                !
 ! D253  D(78,77,82,81)          0.0098         estimate D2E/DX2                !
 ! D254  D(78,77,82,101)      -179.9781         estimate D2E/DX2                !
 ! D255  D(86,77,82,81)       -179.9831         estimate D2E/DX2                !
 ! D256  D(86,77,82,101)         0.029          estimate D2E/DX2                !
 ! D257  D(78,77,86,87)          0.0075         estimate D2E/DX2                !
 ! D258  D(78,77,86,99)        118.4809         estimate D2E/DX2                !
 ! D259  D(78,77,86,100)      -118.5096         estimate D2E/DX2                !
 ! D260  D(82,77,86,87)       -179.999          estimate D2E/DX2                !
 ! D261  D(82,77,86,99)        -61.5255         estimate D2E/DX2                !
 ! D262  D(82,77,86,100)        61.4839         estimate D2E/DX2                !
 ! D263  D(77,78,79,80)         -0.0028         estimate D2E/DX2                !
 ! D264  D(77,78,79,102)       179.99           estimate D2E/DX2                !
 ! D265  D(88,78,79,80)        179.9962         estimate D2E/DX2                !
 ! D266  D(88,78,79,102)        -0.011          estimate D2E/DX2                !
 ! D267  D(77,78,88,87)          0.013          estimate D2E/DX2                !
 ! D268  D(77,78,88,96)       -179.985          estimate D2E/DX2                !
 ! D269  D(79,78,88,87)       -179.986          estimate D2E/DX2                !
[...]
     10          6           0      -19.416476   -0.466634   -0.016153
     11          6           0      -19.870049   -1.772318   -0.364381
     12          1           0      -20.931729   -1.994319   -0.343811
     13          6           0       -0.450308    0.668636   -0.046651
     14          6           0       -1.036830   -0.543852    0.128713
     15         16           0       -1.607331    1.966272   -0.261146
     16          6           0       -7.122926   -1.243950    0.143512
     17          6           0       -6.673879    0.081131   -0.051161
     18          6           0       -7.582694    1.132777   -0.224947
     19          6           0       -8.940860    0.839573   -0.201119
     20          6           0       -9.389891   -0.485461   -0.006281
     21          6           0       -8.481086   -1.537110    0.167557
     22          6           0      -10.120644    1.798164   -0.365237
     23          6           0      -11.306394    0.840759   -0.237417
     24          6           0      -10.854760   -0.490214   -0.027946
     25          6           0       -5.943182   -2.202657    0.306950
     26          6           0       -4.757413   -1.245256    0.179424
     27          6           0       -5.209015    0.085802   -0.029564
     28          6           0      -12.655295    1.130975   -0.302177
     29          6           0      -13.588809    0.082198   -0.156736
     30          6           0      -13.116223   -1.241109    0.052110
     31          6           0      -11.752832   -1.543249    0.118924
     32          6           0       -3.408531   -1.535614    0.243729
     33          6           0       -2.474956   -0.486872    0.098507
     34          6           0       -2.947488    0.836612   -0.109343
     35          6           0       -4.310869    1.138875   -0.175751
     36          6           0      -10.136516    2.865418    0.752136
     37          6           0      -10.098259    2.485242   -1.749128
     38          6           0       -5.965342   -2.889306    1.691112
     39          6           0       -5.927592   -3.270270   -0.810019
     40          1           0       -8.832307   -2.555766    0.317481
     41          1           0       -7.231491    2.151510   -0.374358
     42          1           0       -3.055453   -2.552068    0.403388
     43          1           0       -4.652482    2.157853   -0.335366
     44          1           0      -13.008403    2.147314   -0.462445
     45          1           0      -11.411186   -2.562046    0.279575
     46          1           0       -9.248190    3.504857    0.690348
     47          1           0      -11.019899    3.508237    0.661378
     48          1           0      -10.153671    2.399105    1.742332
     49          1           0      -10.087392    1.745746   -2.556112
     50          1           0      -10.981273    3.121592   -1.879927
     51          1           0       -9.209562    3.118622   -1.853245
     52          1           0       -6.815616   -3.910012   -0.747340
     53          1           0       -5.911269   -2.804281   -1.800370
     54          1           0       -5.043910   -3.912689   -0.719470
     55          1           0       -6.854463   -3.522000    1.795959
     56          1           0       -5.082695   -3.526232    1.821791
     57          1           0       -5.975261   -2.149554    2.497900
     58          1           0      -15.585218    1.057485   -0.336171
     59          1           0       -0.478572   -1.462460    0.276571
     60         16           0      -14.456321   -2.370900    0.203570
     61          6           0      -15.026921    0.139005   -0.187623
     62          6           0      -15.613390   -1.073422   -0.011681
     63          6           0        3.922998    0.476035   -0.154132
     64          6           0        3.273106    1.638532    0.353852
     65          6           0        3.141129   -0.550317   -0.616988
     66          7           0        3.873364    2.731120    0.844120
     67          7           0        1.349145    2.859529    0.874245
     68         16           0        2.665265    3.756911    1.285642
     69          1           0        1.142611   -1.322585   -0.980202
     70          1           0        3.610258   -1.448131   -1.009659
     71          6           0        1.709638   -0.477495   -0.599903
     72          6           0        1.823597    1.712276    0.371154
     73          6           0        1.047191    0.622342   -0.119805
     74          6           0       20.628869   -0.879182   -0.000213
     75          6           0       19.811983   -1.951896    0.163702
     76         16           0       19.754116    0.621680   -0.225583
     77          6           0       13.707931   -1.435108    0.097407
     78          6           0       14.412578   -0.224837   -0.087241
     79          6           0       13.731951    0.985802   -0.269467
     80          6           0       12.342431    0.966849   -0.264170
     81          6           0       11.637807   -0.243379   -0.079357
     82          6           0       12.318423   -1.454020    0.102920
     83          6           0       11.377685    2.139828   -0.440536
     84          6           0       10.024497    1.435642   -0.331121
     85          6           0       10.201319    0.041543   -0.120022
     86          6           0       14.672625   -2.608193    0.273090
     87          6           0       16.025826   -1.904015    0.163970
     88          6           0       15.849046   -0.509839   -0.046645
     89          6           0        8.760554    1.986812   -0.412440
     90          6           0        7.636309    1.143187   -0.282426
     91          6           0        7.835191   -0.247539   -0.071657
     92          6           0        9.110952   -0.813263    0.011867
     93          6           0       17.289728   -2.455320    0.244835
     94          6           0       18.414023   -1.611740    0.115040
     95          6           0       18.215216   -0.220853   -0.094733
     96          6           0       16.939483    0.344990   -0.177850
     97          6           0       11.558178    3.188560    0.679906
     98          6           0       11.553875    2.809665   -1.821841
     99          6           0       14.496735   -3.277654    1.654672
    100          6           0       14.491779   -3.657221   -0.846951
    101          1           0       11.770824   -2.383226    0.245059
    102          1           0       14.279541    1.915088   -0.411093
    103          1           0       17.432777   -3.521597    0.405843
    104          1           0       16.808171    1.411475   -0.338659
    105          1           0        8.617462    3.052983   -0.574059
    106          1           0        9.242319   -1.879578    0.173712
    107          1           0       12.556108    3.639813    0.631657
    108          1           0       10.820566    3.993368    0.579738
    109          1           0       11.435996    2.734310    1.668317
    110          1           0       11.429120    2.083046   -2.630950
    111          1           0       10.815881    3.608079   -1.962062
    112          1           0       12.551536    3.254927   -1.912430
    113          1           0       13.494072   -4.108831   -0.797810
    114          1           0       14.613083   -3.203124   -1.835530
    115          1           0       15.229765   -4.461696   -0.746987
    116          1           0       13.498785   -3.722160    1.745986
    117          1           0       15.234258   -4.076560    1.794766
    118          1           0       14.622473   -2.550971    2.463598
    119          1           0        5.874626    2.493968   -0.484638
    120          1           0       20.175642   -2.962812    0.315880
    121         16           0        6.296327   -1.090211    0.058850
    122          6           0        6.238338    1.483170   -0.331771
    123          6           0        5.421508    0.410505   -0.167276
    124          1           0       21.710968   -0.865580   -0.004513
 ---------------------------------------------------------------------
 Rotational constants (GHZ):           0.1255137           0.0030691           0.0030099
 Leave Link  202 at Sat Nov 11 22:40:26 2023, MaxMem=  1207959552 cpu:               0.0 elap:               0.0
 (Enter /opt/apps/chemistry/Gaussian/g16/l301.exe)
 Standard basis: 3-21G* (6D, 7F)
 Ernie: Thresh=  0.10000D-02 Tol=  0.10000D-05 Strict=F.
 There are   854 symmetry adapted cartesian basis functions of A   symmetry.
 There are   854 symmetry adapted basis functions of A   symmetry.
   854 basis functions,  1416 primitive gaussians,   854 cartesian basis functions
   289 alpha electrons      289 beta electrons
       nuclear repulsion energy     11111.2462779042 Hartrees.
 IExCor=  402 DFT=T Ex+Corr=B3LYP ExCW=0 ScaHFX=  0.200000
 ScaDFX=  0.800000  0.720000  1.000000  0.810000 ScalE2=  1.000000  1.000000
 IRadAn=      5 IRanWt=     -1 IRanGd=            0 ICorTp=0 IEmpDi=  4
 NAtoms=  124 NActive=  124 NUniq=  124 SFac= 1.00D+00 NAtFMM=   60 NAOKFM=T Big=T
 Integral buffers will be    131072 words long.
 Raffenetti 2 integral format.
 Two-electron integral symmetry is turned on.
 Leave Link  301 at Sat Nov 11 22:40:26 2023, MaxMem=  1207959552 cpu:               0.5 elap:               0.1
 (Enter /opt/apps/chemistry/Gaussian/g16/l302.exe)
 NPDir=0 NMtPBC=     1 NCelOv=     1 NCel=       1 NClECP=     1 NCelD=      1
         NCelK=      1 NCelE2=     1 NClLst=     1 CellRange=     0.0.
 One-electron integrals computed using PRISM.
 One-electron integral symmetry used in STVInt
 NBasis=   854 RedAO= T EigKep=  1.05D-03  NBF=   854
 NBsUse=   854 1.00D-06 EigRej= -1.00D+00 NBFU=   854
 Precomputing XC quadrature grid using
 IXCGrd= 4 IRadAn=           5 IRanWt=          -1 IRanGd=           0 AccXCQ= 0.00D+00.
 Generated NRdTot=       0 NPtTot=           0 NUsed=           0 NTot=          32
 NSgBfM=   499   499   499   499   499 MxSgAt=   124 MxSgA2=   105.
 Leave Link  302 at Sat Nov 11 22:40:28 2023, MaxMem=  1207959552 cpu:              16.4 elap:               1.7
 (Enter /opt/apps/chemistry/Gaussian/g16/l303.exe)
 DipDrv:  MaxL=1.
 Leave Link  303 at Sat Nov 11 22:40:28 2023, MaxMem=  1207959552 cpu:               1.5 elap:               0.2
 (Enter /opt/apps/chemistry/Gaussian/g16/l401.exe)
 ExpMin= 1.42D-01 ExpMax= 1.21D+03 ExpMxC= 1.21D+03 IAcc=3 IRadAn=         5 AccDes= 0.00D+00
 Harris functional with IExCor=  402 and IRadAn=       5 diagonalized for initial guess.
 HarFok:  IExCor=  402 AccDes= 0.00D+00 IRadAn=         5 IDoV= 1 UseB2=F ITyADJ=14
 ICtDFT=  3500011 ScaDFX=  1.000000  1.000000  1.000000  1.000000
 FoFCou: FMM=F IPFlag=           0 FMFlag=      100000 FMFlg1=        2001
         NFxFlg=           0 DoJE=T BraDBF=F KetDBF=T FulRan=T
         wScrn=  0.000000 ICntrl=       500 IOpCl=  0 I1Cent=   200000004 NGrid=           0
         NMat0=    1 NMatS0=      1 NMatT0=    0 NMatD0=    1 NMtDS0=    0 NMtDT0=    0
 Petite list used in FoFCou.
 Harris En= -5199.82711025684    
 JPrj=0 DoOrth=F DoCkMO=F.
 Leave Link  401 at Sat Nov 11 22:40:34 2023, MaxMem=  1207959552 cpu:              54.8 elap:               5.5
 (Enter /opt/apps/chemistry/Gaussian/g16/l502.exe)
 Integral symmetry usage will be decided dynamically.
 Closed shell SCF:
 Using DIIS extrapolation, IDIIS=  1040.
 NGot=  1207959552 LenX=  1206482048 LenY=  1205751878
 Requested convergence on RMS density matrix=1.00D-08 within 128 cycles.
 Requested convergence on MAX density matrix=1.00D-06.
 Requested convergence on             energy=1.00D-06.
 No special actions if energy rises.
 Fock matrices will be formed incrementally for  20 cycles.
 Integral accuracy reduced to 1.0D-05 until final iterations.

 Cycle   1  Pass 0  IDiag  1:
 FoFJK:  IHMeth= 1 ICntrl=       0 DoSepK=F KAlg= 0 I1Cent=           0 FoldK=F
 IRaf= 370000000 NMat=       1 IRICut=       1 DoRegI=T DoRafI=F ISym2E= 0 IDoP0=0 IntGTp=1.
 FoFCou: FMM=T IPFlag=           0 FMFlag=      100000 FMFlg1=        2001
         NFxFlg=           0 DoJE=F BraDBF=F KetDBF=F FulRan=T
         wScrn=  0.000000 ICntrl=         0 IOpCl=  0 I1Cent=           0 NGrid=           0
         NMat0=    1 NMatS0=      1 NMatT0=    0 NMatD0=    1 NMtDS0=    0 NMtDT0=    0
 Symmetry not used in FoFCou.
 FMM levels:  10  Number of levels for PrismC:   9
 E= -5198.78304380806    
 DIIS: error= 4.02D-02 at cycle   1 NSaved=   1.
 NSaved= 1 IEnMin= 1 EnMin= -5198.78304380806     IErMin= 1 ErrMin= 4.02D-02
 ErrMax= 4.02D-02  0.00D+00 EMaxC= 1.00D-01 BMatC= 1.55D+00 BMatP= 1.55D+00
 IDIUse=3 WtCom= 5.98D-01 WtEn= 4.02D-01
 Coeff-Com:  0.100D+01
 Coeff-En:   0.100D+01
 Coeff:      0.100D+01
 Gap=     0.196 Goal=   None    Shift=    0.000
 GapD=    0.196 DampG=1.000 DampE=0.500 DampFc=0.5000 IDamp=-1.
 Damping current iteration by 5.00D-01
 RMSDP=5.35D-03 MaxDP=7.10D-01              OVMax= 9.60D-01

 Cycle   2  Pass 0  IDiag  1:
 RMSU=  2.66D-03    CP:  9.80D-01
 E= -5198.56872054029     Delta-E=        0.214323267768 Rises=F Damp=T
 DIIS: error= 2.81D-02 at cycle   2 NSaved=   2.
 NSaved= 2 IEnMin= 1 EnMin= -5198.78304380806     IErMin= 2 ErrMin= 2.81D-02
 ErrMax= 2.81D-02  0.00D+00 EMaxC= 1.00D-01 BMatC= 3.05D-01 BMatP= 1.55D+00
 IDIUse=3 WtCom= 7.19D-01 WtEn= 2.81D-01
 Coeff-Com:  0.227D+00 0.773D+00
 Coeff-En:   0.550D+00 0.450D+00
 Coeff:      0.318D+00 0.682D+00
 Gap=    -0.382 Goal=   None    Shift=    0.000
 RMSDP=2.49D-03 MaxDP=3.44D-01 DE= 2.14D-01 OVMax= 7.23D-01

 Cycle   3  Pass 0  IDiag  1:
 RMSU=  1.82D-03    CP:  9.84D-01  3.59D-01
 E= -5199.95734358363     Delta-E=       -1.388623043342 Rises=F Damp=F
 DIIS: error= 2.97D-02 at cycle   3 NSaved=   3.
 NSaved= 3 IEnMin= 3 EnMin= -5199.95734358363     IErMin= 2 ErrMin= 2.81D-02
 ErrMax= 2.97D-02  0.00D+00 EMaxC= 1.00D-01 BMatC= 3.55D-01 BMatP= 3.05D-01
 IDIUse=2 WtCom= 0.00D+00 WtEn= 1.00D+00
 Coeff-En:   0.000D+00 0.732D-02 0.993D+00
 Coeff:      0.000D+00 0.732D-02 0.993D+00
 Gap=     0.432 Goal=   None    Shift=    0.000
 RMSDP=4.60D-03 MaxDP=5.71D-01 DE=-1.39D+00 OVMax= 9.79D-01

 Cycle   4  Pass 0  IDiag  1:
 RMSU=  2.24D-03    CP:  9.76D-01  1.37D+00 -6.42D-01
 E= -5192.97263953679     Delta-E=        6.984704046848 Rises=F Damp=F
 DIIS: error= 8.59D-02 at cycle   4 NSaved=   4.
 NSaved= 4 IEnMin= 3 EnMin= -5199.95734358363     IErMin= 2 ErrMin= 2.81D-02
 ErrMax= 8.59D-02  0.00D+00 EMaxC= 1.00D-01 BMatC= 3.57D+00 BMatP= 3.05D-01
 IDIUse=2 WtCom= 0.00D+00 WtEn= 1.00D+00
 Coeff-En:   0.000D+00 0.000D+00 0.908D+00 0.921D-01
 Coeff:      0.000D+00 0.000D+00 0.908D+00 0.921D-01
 Gap=    -0.030 Goal=   None    Shift=    0.000
 RMSDP=3.76D-03 MaxDP=5.75D-01 DE= 6.98D+00 OVMax= 9.20D-01

 Cycle   5  Pass 0  IDiag  1:
 RMSU=  1.53D-03    CP:  9.81D-01  4.81D-01  2.37D-01  1.45D-01
 E= -5199.86931111914     Delta-E=       -6.896671582357 Rises=F Damp=F
 DIIS: error= 3.92D-02 at cycle   5 NSaved=   5.
 NSaved= 5 IEnMin= 3 EnMin= -5199.95734358363     IErMin= 2 ErrMin= 2.81D-02
 ErrMax= 3.92D-02  0.00D+00 EMaxC= 1.00D-01 BMatC= 4.89D-01 BMatP= 3.05D-01
 IDIUse=2 WtCom= 0.00D+00 WtEn= 1.00D+00
 Coeff-En:   0.000D+00 0.000D+00 0.534D+00 0.000D+00 0.466D+00
 Coeff:      0.000D+00 0.000D+00 0.534D+00 0.000D+00 0.466D+00
 Gap=     0.073 Goal=   None    Shift=    0.000
 RMSDP=1.25D-03 MaxDP=1.12D-01 DE=-6.90D+00 OVMax= 3.01D-01

 Cycle   6  Pass 0  IDiag  1:
 RMSU=  7.50D-04    CP:  9.83D-01  4.27D-01  5.44D-01  2.10D-02  5.03D-01
 E= -5200.38771266330     Delta-E=       -0.518401544154 Rises=F Damp=F
 DIIS: error= 9.88D-03 at cycle   6 NSaved=   6.
 NSaved= 6 IEnMin= 6 EnMin= -5200.38771266330     IErMin= 6 ErrMin= 9.88D-03
 ErrMax= 9.88D-03  0.00D+00 EMaxC= 1.00D-01 BMatC= 4.75D-02 BMatP= 3.05D-01
 IDIUse=3 WtCom= 9.01D-01 WtEn= 9.88D-02
 Coeff-Com:  0.113D-01 0.432D-01 0.257D+00-0.125D-01 0.270D+00 0.431D+00
 Coeff-En:   0.000D+00 0.000D+00 0.000D+00 0.000D+00 0.272D-01 0.973D+00
 Coeff:      0.102D-01 0.389D-01 0.232D+00-0.112D-01 0.246D+00 0.484D+00
 Gap=     0.096 Goal=   None    Shift=    0.000
 RMSDP=5.31D-04 MaxDP=5.11D-02 DE=-5.18D-01 OVMax= 1.00D-01

 Cycle   7  Pass 0  IDiag  1:
 RMSU=  2.83D-04    CP:  9.82D-01  4.18D-01  5.49D-01  3.74D-02  5.48D-01
                    CP:  4.11D-01
 E= -5200.43133776483     Delta-E=       -0.043625101536 Rises=F Damp=F
 DIIS: error= 8.36D-03 at cycle   7 NSaved=   7.
 NSaved= 7 IEnMin= 7 EnMin= -5200.43133776483     IErMin= 7 ErrMin= 8.36D-03
 ErrMax= 8.36D-03  0.00D+00 EMaxC= 1.00D-01 BMatC= 1.35D-02 BMatP= 4.75D-02
 IDIUse=3 WtCom= 9.16D-01 WtEn= 8.36D-02
 Coeff-Com: -0.159D-03 0.858D-02 0.867D-01-0.106D-01 0.112D+00 0.348D+00
 Coeff-Com:  0.456D+00
 Coeff-En:   0.000D+00 0.000D+00 0.000D+00 0.000D+00 0.000D+00 0.217D+00
 Coeff-En:   0.783D+00
 Coeff:     -0.145D-03 0.787D-02 0.794D-01-0.974D-02 0.102D+00 0.337D+00
 Coeff:      0.483D+00
 Gap=     0.093 Goal=   None    Shift=    0.000
 RMSDP=2.21D-04 MaxDP=1.87D-02 DE=-4.36D-02 OVMax= 3.13D-02

 Cycle   8  Pass 0  IDiag  1:
 RMSU=  1.43D-04    CP:  9.82D-01  4.21D-01  5.49D-01  3.26D-02  5.40D-01
                    CP:  5.26D-01  4.95D-01
 E= -5200.44193625502     Delta-E=       -0.010598490189 Rises=F Damp=F
 DIIS: error= 4.66D-03 at cycle   8 NSaved=   8.
 NSaved= 8 IEnMin= 8 EnMin= -5200.44193625502     IErMin= 8 ErrMin= 4.66D-03
 ErrMax= 4.66D-03  0.00D+00 EMaxC= 1.00D-01 BMatC= 3.58D-03 BMatP= 1.35D-02
 IDIUse=3 WtCom= 9.53D-01 WtEn= 4.66D-02
 Coeff-Com: -0.282D-03 0.229D-03 0.155D-01-0.373D-02 0.189D-01 0.144D+00
 Coeff-Com:  0.371D+00 0.454D+00
 Coeff-En:   0.000D+00 0.000D+00 0.000D+00 0.000D+00 0.000D+00 0.000D+00
 Coeff-En:   0.241D+00 0.759D+00
 Coeff:     -0.269D-03 0.219D-03 0.148D-01-0.356D-02 0.180D-01 0.137D+00
 Coeff:      0.365D+00 0.469D+00
 Gap=     0.094 Goal=   None    Shift=    0.000
 RMSDP=1.00D-04 MaxDP=9.94D-03 DE=-1.06D-02 OVMax= 1.46D-02

 Cycle   9  Pass 0  IDiag  1:
 RMSU=  5.72D-05    CP:  9.82D-01  4.20D-01  5.52D-01  3.06D-02  5.35D-01
                    CP:  5.29D-01  6.11D-01  4.77D-01
 E= -5200.44503498777     Delta-E=       -0.003098732748 Rises=F Damp=F
 DIIS: error= 1.33D-03 at cycle   9 NSaved=   9.
 NSaved= 9 IEnMin= 9 EnMin= -5200.44503498777     IErMin= 9 ErrMin= 1.33D-03
 ErrMax= 1.33D-03  0.00D+00 EMaxC= 1.00D-01 BMatC= 5.22D-04 BMatP= 3.58D-03
 IDIUse=3 WtCom= 9.87D-01 WtEn= 1.33D-02
 Coeff-Com:  0.310D-03-0.206D-02 0.941D-03-0.516D-03-0.273D-02 0.500D-01
 Coeff-Com:  0.196D+00 0.339D+00 0.418D+00
 Coeff-En:   0.000D+00 0.000D+00 0.000D+00 0.000D+00 0.000D+00 0.000D+00
 Coeff-En:   0.000D+00 0.140D+00 0.860D+00
 Coeff:      0.306D-03-0.204D-02 0.929D-03-0.509D-03-0.269D-02 0.494D-01
 Coeff:      0.194D+00 0.337D+00 0.424D+00
 Gap=     0.095 Goal=   None    Shift=    0.000
 RMSDP=3.84D-05 MaxDP=2.63D-03 DE=-3.10D-03 OVMax= 6.32D-03

 Cycle  10  Pass 0  IDiag  1:
 RMSU=  1.84D-05    CP:  9.82D-01  4.19D-01  5.53D-01  3.21D-02  5.35D-01
                    CP:  5.20D-01  6.29D-01  5.75D-01  4.91D-01
 E= -5200.44557633423     Delta-E=       -0.000541346461 Rises=F Damp=F
 DIIS: error= 1.81D-04 at cycle  10 NSaved=  10.
 NSaved=10 IEnMin=10 EnMin= -5200.44557633423     IErMin=10 ErrMin= 1.81D-04
 ErrMax= 1.81D-04  0.00D+00 EMaxC= 1.00D-01 BMatC= 2.38D-05 BMatP= 5.22D-04
 IDIUse=3 WtCom= 9.98D-01 WtEn= 1.81D-03
 Coeff-Com:  0.220D-03-0.138D-02-0.656D-04 0.280D-03-0.297D-02 0.145D-01
 Coeff-Com:  0.723D-01 0.143D+00 0.247D+00 0.527D+00
 Coeff-En:   0.000D+00 0.000D+00 0.000D+00 0.000D+00 0.000D+00 0.000D+00
 Coeff-En:   0.000D+00 0.000D+00 0.000D+00 0.100D+01
 Coeff:      0.219D-03-0.137D-02-0.654D-04 0.280D-03-0.296D-02 0.144D-01
 Coeff:      0.721D-01 0.143D+00 0.247D+00 0.527D+00
 Gap=     0.095 Goal=   None    Shift=    0.000
 RMSDP=9.40D-06 MaxDP=7.34D-04 DE=-5.41D-04 OVMax= 1.43D-03

 Initial convergence to 1.0D-05 achieved.  Increase integral accuracy.
 Cycle  11  Pass 1  IDiag  1:
