 Entering Gaussian System, Link 0=g16
 Input=oligomer-3.com
 Output=oligomer-3.log
 Initial command:
 /opt/apps/chemistry/Gaussian/g16/l1.exe "/tmp/Gau-71819.inp" -scrdir="/tmp/"
 Entering Link 1 = /opt/apps/chemistry/Gaussian/g16/l1.exe PID=     71857.
  
 Copyright (c) 1988,1990,1992,1993,1995,1998,2003,2009,2016,
            Gaussian, Inc.  All Rights Reserved.
  
 This is part of the Gaussian(R) 16 program.  It is based on
 the Gaussian(R) 09 system (copyright 2009, Gaussian, Inc.),
 the Gaussian(R) 03 system (copyright 2003, Gaussian, Inc.),
 the Gaussian(R) 98 system (copyright 1998, Gaussian, Inc.),
 the Gaussian(R) 94 system (copyright 1995, Gaussian, Inc.),
 the Gaussian 92(TM) system (copyright 1992, Gaussian, Inc.),
 the Gaussian 90(TM) system (copyright 1990, Gaussian, Inc.),
 the Gaussian 88(TM) system (copyright 1988, Gaussian, Inc.),
 the Gaussian 86(TM) system (copyright 1986, Carnegie Mellon
 University), and the Gaussian 82(TM) system (copyright 1983,
 Carnegie Mellon University). Gaussian is a federally registered
 trademark of Gaussian, Inc.
  
 This software contains proprietary and confidential information,
 including trade secrets, belonging to Gaussian, Inc.
  
 This software is provided under written license and may be
 used, copied, transmitted, or stored only in accord with that
 written license.
  
 The following legend is applicable only to US Government
 contracts under FAR:
  
                    RESTRICTED RIGHTS LEGEND
  
 Use, reproduction and disclosure by the US Government is
 subject to restrictions as set forth in subparagraphs (a)
 and (c) of the Commercial Computer Software - Restricted
 Rights clause in FAR 52.227-19.
  
 Gaussian, Inc.
 340 Quinnipiac St., Bldg. 40, Wallingford CT 06492
  
  
 ---------------------------------------------------------------
 Warning -- This program may not be used in any manner that
 competes with the business of Gaussian, Inc. or will provide
 assistance to any competitor of Gaussian, Inc.  The licensee
 of this program is prohibited from giving any competitor of
 Gaussian, Inc. access to this program.  By using this program,
 the user acknowledges that Gaussian, Inc. is engaged in the
 business of creating and licensing software in the field of
 computational chemistry and represents and warrants to the
 licensee that it is not a competitor of Gaussian, Inc. and that
 it will not use this program in any manner prohibited above.
 ---------------------------------------------------------------
  

 Cite this work as:
 Gaussian 16, Revision A.03,
 M. J. Frisch, G. W. Trucks, H. B. Schlegel, G. E. Scuseria, 
 M. A. Robb, J. R. Cheeseman, G. Scalmani, V. Barone, 
 G. A. Petersson, H. Nakatsuji, X. Li, M. Caricato, A. V. Marenich, 
 J. Bloino, B. G. Janesko, R. Gomperts, B. Mennucci, H. P. Hratchian, 
 J. V. Ortiz, A. F. Izmaylov, J. L. Sonnenberg, D. Williams-Young, 
 F. Ding, F. Lipparini, F. Egidi, J. Goings, B. Peng, A. Petrone, 
 T. Henderson, D. Ranasinghe, V. G. Zakrzewski, J. Gao, N. Rega, 
 G. Zheng, W. Liang, M. Hada, M. Ehara, K. Toyota, R. Fukuda, 
 J. Hasegawa, M. Ishida, T. Nakajima, Y. Honda, O. Kitao, H. Nakai, 
 T. Vreven, K. Throssell, J. A. Montgomery, Jr., J. E. Peralta, 
 F. Ogliaro, M. J. Bearpark, J. J. Heyd, E. N. Brothers, K. N. Kudin, 
 V. N. Staroverov, T. A. Keith, R. Kobayashi, J. Normand, 
 K. Raghavachari, A. P. Rendell, J. C. Burant, S. S. Iyengar, 
 J. Tomasi, M. Cossi, J. M. Millam, M. Klene, C. Adamo, R. Cammi, 
 J. W. Ochterski, R. L. Martin, K. Morokuma, O. Farkas, 
 J. B. Foresman, and D. J. Fox, Gaussian, Inc., Wallingford CT, 2016.
 
 ******************************************
 Gaussian 16:  ES64L-G16RevA.03 25-Dec-2016
                11-Nov-2023 
 ******************************************
 %nproc=10
 Will use up to   10 processors via shared memory.
 %mem=9GB
 %chk=TIFBT3.chk
 -------------------
 #p opt b3lyp/3-21g*
 -------------------
 1/18=20,19=15,26=3,38=1/1,3;
 2/9=110,12=2,17=6,18=5,40=1/2;
 3/5=5,7=1,11=2,25=1,30=1,71=1,74=-5/1,2,3;
 4//1;
 5/5=2,38=5/2;
 6/7=2,8=2,9=2,10=2,28=1/1;
 7//1,2,3,16;
 1/18=20,19=15,26=3/3(2);
 2/9=110/2;
 99//99;
 2/9=110/2;
 3/5=5,7=1,11=2,25=1,30=1,71=1,74=-5/1,2,3;
 4/5=5,16=3,69=1/1;
 5/5=2,38=5/2;
 7//1,2,3,16;
 1/18=20,19=15,26=3/3(-5);
 2/9=110/2;
 6/7=2,8=2,9=2,10=2,19=2,28=1/1;
 99/9=1/99;
 Leave Link    1 at Sat Nov 11 22:40:29 2023, MaxMem=  1207959552 cpu:               0.6 elap:               0.1
 (Enter /opt/apps/chemistry/Gaussian/g16/l101.exe)
 ----------------------------------------------
 Gaussian optimization calculation on oligomer3
 ----------------------------------------------
 Symbolic Z-matrix:
 Charge =  0 Multiplicity = 1
 C                     0.        0.        0. 
 C                    -0.83535   1.13173   0.23061 
 C                    -0.59914  -1.22205  -0.16299 
 N                    -0.42636   2.3945    0.41107 
 N                    -2.93672   2.11633   0.51 
 S                    -1.78923   3.28881   0.63357 
 H                    -2.44042  -2.37341  -0.24338 
 H                     0.01368  -2.1015   -0.34011 
 C                    -2.02278  -1.3798   -0.10688 
 C                    -2.27691   0.972     0.28742 
 C                    -2.86002  -0.31689   0.11272 
 H                    -3.93826  -0.42797   0.15657 
 C                     16.70777   0.20931   0.21307 
 C                     16.00556  -0.90519   0.54425 
 S                     15.68317   1.57528  -0.17794 
 C                     9.88035  -0.99096   0.61756 
 C                     10.45676   0.24564   0.25156 
 C                     9.65511   1.34981  -0.06512 
 C                     8.27483   1.1983   -0.01026 
 C                     7.69844  -0.03823   0.3559 
 C                     8.50008  -1.1424    0.67263 
 C                     7.19442   2.23881  -0.30655 
 C                     5.9208    1.42893  -0.05965 
 C                     6.24016   0.09928   0.32684 
 C                     10.9607  -2.03167   0.91319 
 C                     12.23434  -1.22176   0.66659 
 C                     11.91502   0.10804   0.28056 
 C                     4.60676   1.84017  -0.16985 
 C                     3.57523   0.91753   0.10803 
 C                     3.9162   -0.40672   0.493 
 C                     5.24349  -0.83087   0.6069 
 C                     13.54834  -1.63319   0.77636 
 C                     14.57993  -0.71057   0.4987 
 C                     14.23905   0.61398   0.11469 
 C                     12.91178   1.03832   0.00118 
 C                     7.29267   3.44088   0.65947 
 C                     7.27414   2.731    -1.76912 
 C                     10.88125  -2.52342   2.37598 
 C                     10.86214  -3.23401  -0.05237 
 H                     8.05098  -2.0924    0.95422 
 H                     10.1042   2.29996  -0.34621 
 H                     13.80036  -2.64949   1.07126 
 H                     12.67142   2.05597  -0.29395 
 H                     4.3547    2.85627  -0.46534 
 H                     5.48391  -1.84822   0.90303 
 H                     8.23938   3.97536   0.51848 
 H                     6.47653   4.15032   0.47939 
 H                     7.237     3.11378   1.7026 
 H                     7.20569   1.89376  -2.47094 
 H                     6.45742   3.42872  -1.98803 
 H                     8.22031   3.25387  -1.95126 
 H                     9.9157   -3.7687    0.08953 
 H                     10.91695  -2.90717  -1.09563 
 H                     11.67862  -3.94311   0.12744 
 H                     9.93473  -3.04547   2.55875 
 H                     11.69754  -3.22169   2.59484 
 H                     10.95067  -1.68605   3.07758 
 H                     1.68377   2.05335  -0.21023 
 H                     16.47134  -1.84686   0.81564 
 S                     2.47212  -1.36819   0.7853 
 C                     2.1496    1.11189   0.06183 
 C                     1.44745  -0.00248   0.39356 
 C                     21.03965  -0.42797   0.15657 
 C                     20.15365  -1.49105   0.50133 
 C                     20.49468   0.78591  -0.16958 
 N                     20.50659  -2.73614   0.8448 
 N                     18.00775  -2.3555    0.8435 
 S                     19.10347  -3.54531   1.13882 
 H                     18.704    1.98569  -0.43763 
 H                     21.14684   1.6136   -0.43636 
 C                     19.07758   1.00177  -0.17031 
 C                     18.71872  -1.27247   0.50058 
 C                     18.19275   0.00567   0.15509 
 C                     37.52629  -3.42449   0.5823 
 C                     36.60858  -4.37984   0.88232 
 S                     36.80258  -1.88749   0.15517 
 C                     30.58524  -3.27443   0.71393 
 C                     31.40471  -2.17505   0.37451 
 C                     30.84579  -0.93779   0.02968 
 C                     29.46129  -0.81817   0.02965 
 C                     28.64185  -1.91749   0.36923 
 C                     29.20076  -3.15475   0.71411 
 C                     28.61597   0.41086  -0.30597 
 C                     27.20064  -0.13514  -0.11181 
 C                     27.24032  -1.49962   0.28312 
 C                     31.43049  -4.50365   1.04889 
 C                     32.84584  -3.95762   0.85502 
 C                     32.80622  -2.59301   0.46056 
 C                     25.99683   0.52285  -0.27252 
 C                     24.79568  -0.18061  -0.03818 
 C                     24.85764  -1.54399   0.3561 
 C                     26.07179  -2.21721   0.52099 
 C                     34.0496  -4.61581   1.0153 
 C                     35.25079  -3.91236   0.78118 
 C                     35.18893  -2.5487    0.38787 
 C                     33.97482  -1.87531   0.22336 
 C                     28.9078   1.57562   0.66663 
 C                     28.84705   0.87115  -1.76284 
 C                     31.19975  -4.96357   2.50598 
 C                     31.13828  -5.66862   0.07672 
 H                     28.56504  -3.99811   0.97504 
 H                     31.48151  -0.09427  -0.23075 
 H                     34.08771  -5.66026   1.31696 
 H                     33.94841  -0.83179  -0.07806 
 H                     25.95866   1.56712  -0.57477 
 H                     26.09828  -3.26044   0.82342 
 H                     29.94508   1.91545   0.56462 
 H                     28.25267   2.42914   0.45659 
 H                     28.7488   1.27058   1.70582 
 H                     28.6449   0.05977  -2.46923 
 H                     28.1906   1.7131   -2.01174 
 H                     29.88314   1.19949  -1.90603 
 H                     30.10121  -6.0087    0.17967 
 H                     31.29639  -5.36366  -0.96262 
 H                     31.79383  -6.52187   0.28652 
 H                     30.16346  -5.29104   2.64979 
 H                     31.85569  -5.80597   2.75482 
 H                     31.40288  -4.15224   3.21219 
 H                     23.17474   1.29928  -0.42745 
 H                     36.87162  -5.39271   1.16913 
 S                     23.24401  -2.20539   0.58848 
 C                     23.43785   0.28661  -0.13997 
 C                     22.52021  -0.66862   0.16061 
 H                     38.60437  -3.51881   0.5823 
 
 ITRead=  0  0  0  0  0  0  0  0  0  0  0  0  0  0  0  0  0  0  0  0
 ITRead=  0  0  0  0  0  0  0  0  0  0  0  0  0  0  0  0  0  0  0  0
 ITRead=  0  0  0  0  0  0  0  0  0  0  0  0  0  0  0  0  0  0  0  0
 ITRead=  0  0  0  0  0  0  0  0  0  0  0  0  0  0  0  0  0  0  0  0
 ITRead=  0  0  0  0  0  0  0  0  0  0  0  0  0  0  0  0  0  0  0  0
 ITRead=  0  0  0  0  0  0  0  0  0  0  0  0  0  0  0  0  0  0  0  0
 ITRead=  0  0  0  0
 MicOpt= -1 -1 -1 -1 -1 -1 -1 -1 -1 -1 -1 -1 -1 -1 -1 -1 -1 -1 -1 -1
 MicOpt= -1 -1 -1 -1 -1 -1 -1 -1 -1 -1 -1 -1 -1 -1 -1 -1 -1 -1 -1 -1
 MicOpt= -1 -1 -1 -1 -1 -1 -1 -1 -1 -1 -1 -1 -1 -1 -1 -1 -1 -1 -1 -1
 MicOpt= -1 -1 -1 -1 -1 -1 -1 -1 -1 -1 -1 -1 -1 -1 -1 -1 -1 -1 -1 -1
 MicOpt= -1 -1 -1 -1 -1 -1 -1 -1 -1 -1 -1 -1 -1 -1 -1 -1 -1 -1 -1 -1
 MicOpt= -1 -1 -1 -1 -1 -1 -1 -1 -1 -1 -1 -1 -1 -1 -1 -1 -1 -1 -1 -1
 MicOpt= -1 -1 -1 -1
 NAtoms=    124 NQM=      124 NQMF=       0 NMMI=      0 NMMIF=      0
                NMic=       0 NMicF=      0.
                    Isotopes and Nuclear Properties:
 (Nuclear quadrupole moments (NQMom) in fm**2, nuclear magnetic moments (NMagM)
  in nuclear magnetons)

  Atom         1           2           3           4           5           6           7           8           9          10
 IAtWgt=          12          12          12          14          14          32           1           1          12          12
 AtmWgt=  12.0000000  12.0000000  12.0000000  14.0030740  14.0030740  31.9720718   1.0078250   1.0078250  12.0000000  12.0000000
 NucSpn=           0           0           0           2           2           0           1           1           0           0
 AtZEff=  -0.0000000  -0.0000000  -0.0000000  -0.0000000  -0.0000000  -0.0000000  -0.0000000  -0.0000000  -0.0000000  -0.0000000
 NQMom=    0.0000000   0.0000000   0.0000000   2.0440000   2.0440000   0.0000000   0.0000000   0.0000000   0.0000000   0.0000000
 NMagM=    0.0000000   0.0000000   0.0000000   0.4037610   0.4037610   0.0000000   2.7928460   2.7928460   0.0000000   0.0000000
 AtZNuc=   6.0000000   6.0000000   6.0000000   7.0000000   7.0000000  16.0000000   1.0000000   1.0000000   6.0000000   6.0000000

  Atom        11          12          13          14          15          16          17          18          19          20
 IAtWgt=          12           1          12          12          32          12          12          12          12          12
 AtmWgt=  12.0000000   1.0078250  12.0000000  12.0000000  31.9720718  12.0000000  12.0000000  12.0000000  12.0000000  12.0000000
 NucSpn=           0           1           0           0           0           0           0           0           0           0
 AtZEff=  -0.0000000  -0.0000000  -0.0000000  -0.0000000  -0.0000000  -0.0000000  -0.0000000  -0.0000000  -0.0000000  -0.0000000
 NQMom=    0.0000000   0.0000000   0.0000000   0.0000000   0.0000000   0.0000000   0.0000000   0.0000000   0.0000000   0.0000000
 NMagM=    0.0000000   2.7928460   0.0000000   0.0000000   0.0000000   0.0000000   0.0000000   0.0000000   0.0000000   0.0000000
 AtZNuc=   6.0000000   1.0000000   6.0000000   6.0000000  16.0000000   6.0000000   6.0000000   6.0000000   6.0000000   6.0000000

  Atom        21          22          23          24          25          26          27          28          29          30
 IAtWgt=          12          12          12          12          12          12          12          12          12          12
 AtmWgt=  12.0000000  12.0000000  12.0000000  12.0000000  12.0000000  12.0000000  12.0000000  12.0000000  12.0000000  12.0000000
 NucSpn=           0           0           0           0           0           0           0           0           0           0
 AtZEff=  -0.0000000  -0.0000000  -0.0000000  -0.0000000  -0.0000000  -0.0000000  -0.0000000  -0.0000000  -0.0000000  -0.0000000
 NQMom=    0.0000000   0.0000000   0.0000000   0.0000000   0.0000000   0.0000000   0.0000000   0.0000000   0.0000000   0.0000000
 NMagM=    0.0000000   0.0000000   0.0000000   0.0000000   0.0000000   0.0000000   0.0000000   0.0000000   0.0000000   0.0000000
 AtZNuc=   6.0000000   6.0000000   6.0000000   6.0000000   6.0000000   6.0000000   6.0000000   6.0000000   6.0000000   6.0000000

  Atom        31          32          33          34          35          36          37          38          39          40
 IAtWgt=          12          12          12          12          12          12          12          12          12           1
 AtmWgt=  12.0000000  12.0000000  12.0000000  12.0000000  12.0000000  12.0000000  12.0000000  12.0000000  12.0000000   1.0078250
 NucSpn=           0           0           0           0           0           0           0           0           0           1
 AtZEff=  -0.0000000  -0.0000000  -0.0000000  -0.0000000  -0.0000000  -0.0000000  -0.0000000  -0.0000000  -0.0000000  -0.0000000
 NQMom=    0.0000000   0.0000000   0.0000000   0.0000000   0.0000000   0.0000000   0.0000000   0.0000000   0.0000000   0.0000000
 NMagM=    0.0000000   0.0000000   0.0000000   0.0000000   0.0000000   0.0000000   0.0000000   0.0000000   0.0000000   2.7928460
 AtZNuc=   6.0000000   6.0000000   6.0000000   6.0000000   6.0000000   6.0000000   6.0000000   6.0000000   6.0000000   1.0000000

  Atom        41          42          43          44          45          46          47          48          49          50
 IAtWgt=           1           1           1           1           1           1           1           1           1           1
 AtmWgt=   1.0078250   1.0078250   1.0078250   1.0078250   1.0078250   1.0078250   1.0078250   1.0078250   1.0078250   1.0078250
 NucSpn=           1           1           1           1           1           1           1           1           1           1
 AtZEff=  -0.0000000  -0.0000000  -0.0000000  -0.0000000  -0.0000000  -0.0000000  -0.0000000  -0.0000000  -0.0000000  -0.0000000
 NQMom=    0.0000000   0.0000000   0.0000000   0.0000000   0.0000000   0.0000000   0.0000000   0.0000000   0.0000000   0.0000000
 NMagM=    2.7928460   2.7928460   2.7928460   2.7928460   2.7928460   2.7928460   2.7928460   2.7928460   2.7928460   2.7928460
 AtZNuc=   1.0000000   1.0000000   1.0000000   1.0000000   1.0000000   1.0000000   1.0000000   1.0000000   1.0000000   1.0000000

  Atom        51          52          53          54          55          56          57          58          59          60
 IAtWgt=           1           1           1           1           1           1           1           1           1          32
 AtmWgt=   1.0078250   1.0078250   1.0078250   1.0078250   1.0078250   1.0078250   1.0078250   1.0078250   1.0078250  31.9720718
 NucSpn=           1           1           1           1           1           1           1           1           1           0
 AtZEff=  -0.0000000  -0.0000000  -0.0000000  -0.0000000  -0.0000000  -0.0000000  -0.0000000  -0.0000000  -0.0000000  -0.0000000
 NQMom=    0.0000000   0.0000000   0.0000000   0.0000000   0.0000000   0.0000000   0.0000000   0.0000000   0.0000000   0.0000000
 NMagM=    2.7928460   2.7928460   2.7928460   2.7928460   2.7928460   2.7928460   2.7928460   2.7928460   2.7928460   0.0000000
 AtZNuc=   1.0000000   1.0000000   1.0000000   1.0000000   1.0000000   1.0000000   1.0000000   1.0000000   1.0000000  16.0000000

  Atom        61          62          63          64          65          66          67          68          69          70
 IAtWgt=          12          12          12          12          12          14          14          32           1           1
 AtmWgt=  12.0000000  12.0000000  12.0000000  12.0000000  12.0000000  14.0030740  14.0030740  31.9720718   1.0078250   1.0078250
 NucSpn=           0           0           0           0           0           2           2           0           1           1
 AtZEff=  -0.0000000  -0.0000000  -0.0000000  -0.0000000  -0.0000000  -0.0000000  -0.0000000  -0.0000000  -0.0000000  -0.0000000
 NQMom=    0.0000000   0.0000000   0.0000000   0.0000000   0.0000000   2.0440000   2.0440000   0.0000000   0.0000000   0.0000000
 NMagM=    0.0000000   0.0000000   0.0000000   0.0000000   0.0000000   0.4037610   0.4037610   0.0000000   2.7928460   2.7928460
 AtZNuc=   6.0000000   6.0000000   6.0000000   6.0000000   6.0000000   7.0000000   7.0000000  16.0000000   1.0000000   1.0000000

  Atom        71          72          73          74          75          76          77          78          79          80
 IAtWgt=          12          12          12          12          12          32          12          12          12          12
 AtmWgt=  12.0000000  12.0000000  12.0000000  12.0000000  12.0000000  31.9720718  12.0000000  12.0000000  12.0000000  12.0000000
 NucSpn=           0           0           0           0           0           0           0           0           0           0
 AtZEff=  -0.0000000  -0.0000000  -0.0000000  -0.0000000  -0.0000000  -0.0000000  -0.0000000  -0.0000000  -0.0000000  -0.0000000
 NQMom=    0.0000000   0.0000000   0.0000000   0.0000000   0.0000000   0.0000000   0.0000000   0.0000000   0.0000000   0.0000000
 NMagM=    0.0000000   0.0000000   0.0000000   0.0000000   0.0000000   0.0000000   0.0000000   0.0000000   0.0000000   0.0000000
 AtZNuc=   6.0000000   6.0000000   6.0000000   6.0000000   6.0000000  16.0000000   6.0000000   6.0000000   6.0000000   6.0000000

  Atom        81          82          83          84          85          86          87          88          89          90
 IAtWgt=          12          12          12          12          12          12          12          12          12          12
 AtmWgt=  12.0000000  12.0000000  12.0000000  12.0000000  12.0000000  12.0000000  12.0000000  12.0000000  12.0000000  12.0000000
 NucSpn=           0           0           0           0           0           0           0           0           0           0
 AtZEff=  -0.0000000  -0.0000000  -0.0000000  -0.0000000  -0.0000000  -0.0000000  -0.0000000  -0.0000000  -0.0000000  -0.0000000
 NQMom=    0.0000000   0.0000000   0.0000000   0.0000000   0.0000000   0.0000000   0.0000000   0.0000000   0.0000000   0.0000000
 NMagM=    0.0000000   0.0000000   0.0000000   0.0000000   0.0000000   0.0000000   0.0000000   0.0000000   0.0000000   0.0000000
 AtZNuc=   6.0000000   6.0000000   6.0000000   6.0000000   6.0000000   6.0000000   6.0000000   6.0000000   6.0000000   6.0000000

  Atom        91          92          93          94          95          96          97          98          99         100
 IAtWgt=          12          12          12          12          12          12          12          12          12          12
 AtmWgt=  12.0000000  12.0000000  12.0000000  12.0000000  12.0000000  12.0000000  12.0000000  12.0000000  12.0000000  12.0000000
 NucSpn=           0           0           0           0           0           0           0           0           0           0
 AtZEff=  -0.0000000  -0.0000000  -0.0000000  -0.0000000  -0.0000000  -0.0000000  -0.0000000  -0.0000000  -0.0000000  -0.0000000
 NQMom=    0.0000000   0.0000000   0.0000000   0.0000000   0.0000000   0.0000000   0.0000000   0.0000000   0.0000000   0.0000000
 NMagM=    0.0000000   0.0000000   0.0000000   0.0000000   0.0000000   0.0000000   0.0000000   0.0000000   0.0000000   0.0000000
 AtZNuc=   6.0000000   6.0000000   6.0000000   6.0000000   6.0000000   6.0000000   6.0000000   6.0000000   6.0000000   6.0000000

  Atom       101         102         103         104         105         106         107         108         109         110
 IAtWgt=           1           1           1           1           1           1           1           1           1           1
 AtmWgt=   1.0078250   1.0078250   1.0078250   1.0078250   1.0078250   1.0078250   1.0078250   1.0078250   1.0078250   1.0078250
 NucSpn=           1           1           1           1           1           1           1           1           1           1
 AtZEff=  -0.0000000  -0.0000000  -0.0000000  -0.0000000  -0.0000000  -0.0000000  -0.0000000  -0.0000000  -0.0000000  -0.0000000
 NQMom=    0.0000000   0.0000000   0.0000000   0.0000000   0.0000000   0.0000000   0.0000000   0.0000000   0.0000000   0.0000000
 NMagM=    2.7928460   2.7928460   2.7928460   2.7928460   2.7928460   2.7928460   2.7928460   2.7928460   2.7928460   2.7928460
 AtZNuc=   1.0000000   1.0000000   1.0000000   1.0000000   1.0000000   1.0000000   1.0000000   1.0000000   1.0000000   1.0000000

  Atom       111         112         113         114         115         116         117         118         119         120
 IAtWgt=           1           1           1           1           1           1           1           1           1           1
 AtmWgt=   1.0078250   1.0078250   1.0078250   1.0078250   1.0078250   1.0078250   1.0078250   1.0078250   1.0078250   1.0078250
 NucSpn=           1           1           1           1           1           1           1           1           1           1
 AtZEff=  -0.0000000  -0.0000000  -0.0000000  -0.0000000  -0.0000000  -0.0000000  -0.0000000  -0.0000000  -0.0000000  -0.0000000
 NQMom=    0.0000000   0.0000000   0.0000000   0.0000000   0.0000000   0.0000000   0.0000000   0.0000000   0.0000000   0.0000000
 NMagM=    2.7928460   2.7928460   2.7928460   2.7928460   2.7928460   2.7928460   2.7928460   2.7928460   2.7928460   2.7928460
 AtZNuc=   1.0000000   1.0000000   1.0000000   1.0000000   1.0000000   1.0000000   1.0000000   1.0000000   1.0000000   1.0000000

  Atom       121         122         123         124
 IAtWgt=          32          12          12           1
 AtmWgt=  31.9720718  12.0000000  12.0000000   1.0078250
 NucSpn=           0           0           0           1
 AtZEff=  -0.0000000  -0.0000000  -0.0000000  -0.0000000
 NQMom=    0.0000000   0.0000000   0.0000000   0.0000000
 NMagM=    0.0000000   0.0000000   0.0000000   2.7928460
 AtZNuc=  16.0000000   6.0000000   6.0000000   1.0000000
 Leave Link  101 at Sat Nov 11 22:40:29 2023, MaxMem=  1207959552 cpu:               3.6 elap:               0.4
 (Enter /opt/apps/chemistry/Gaussian/g16/l103.exe)

 GradGradGradGradGradGradGradGradGradGradGradGradGradGradGradGradGradGrad
 Berny optimization.
 Initialization pass.
                           ----------------------------
                           !    Initial Parameters    !
                           ! (Angstroms and Degrees)  !
 --------------------------                            --------------------------
 ! Name  Definition              Value          Derivative Info.                !
 --------------------------------------------------------------------------------
 ! R1    R(1,2)                  1.4254         estimate D2E/DX2                !
 ! R2    R(1,3)                  1.3707         estimate D2E/DX2                !
 ! R3    R(1,62)                 1.5            estimate D2E/DX2                !
 ! R4    R(2,4)                  1.3396         estimate D2E/DX2                !
 ! R5    R(2,10)                 1.4515         estimate D2E/DX2                !
 ! R6    R(3,8)                  1.0864         estimate D2E/DX2                !
 ! R7    R(3,9)                  1.4334         estimate D2E/DX2                !
 ! R8    R(4,6)                  1.6452         estimate D2E/DX2                !
 ! R9    R(5,6)                  1.6452         estimate D2E/DX2                !
 ! R10   R(5,10)                 1.3395         estimate D2E/DX2                !
 ! R11   R(7,9)                  1.0864         estimate D2E/DX2                !
 ! R12   R(9,11)                 1.3708         estimate D2E/DX2                !
 ! R13   R(10,11)                1.4254         estimate D2E/DX2                !
 ! R14   R(11,12)                1.0848         estimate D2E/DX2                !
 ! R15   R(13,14)                1.3583         estimate D2E/DX2                !
 ! R16   R(13,15)                1.7517         estimate D2E/DX2                !
 ! R17   R(13,73)                1.5            estimate D2E/DX2                !
 ! R18   R(14,33)                1.4396         estimate D2E/DX2                !
 ! R19   R(14,59)                1.0851         estimate D2E/DX2                !
 ! R20   R(15,34)                1.7593         estimate D2E/DX2                !
 ! R21   R(16,17)                1.4126         estimate D2E/DX2                !
 ! R22   R(16,21)                1.3896         estimate D2E/DX2                !
 ! R23   R(16,25)                1.5289         estimate D2E/DX2                !
 ! R24   R(17,18)                1.4008         estimate D2E/DX2                !
 ! R25   R(17,27)                1.465          estimate D2E/DX2                !
 ! R26   R(18,19)                1.3897         estimate D2E/DX2                !
 ! R27   R(18,41)                1.0879         estimate D2E/DX2                !
 ! R28   R(19,20)                1.4126         estimate D2E/DX2                !
 ! R29   R(19,22)                1.529          estimate D2E/DX2                !
 ! R30   R(20,21)                1.4008         estimate D2E/DX2                !
 ! R31   R(20,24)                1.465          estimate D2E/DX2                !
 ! R32   R(21,40)                1.0879         estimate D2E/DX2                !
 ! R33   R(22,23)                1.5294         estimate D2E/DX2                !
 ! R34   R(22,36)                1.5453         estimate D2E/DX2                !
 ! R35   R(22,37)                1.5452         estimate D2E/DX2                !
 ! R36   R(23,24)                1.421          estimate D2E/DX2                !
 ! R37   R(23,28)                1.3813         estimate D2E/DX2                !
 ! R38   R(24,31)                1.3918         estimate D2E/DX2                !
 ! R39   R(25,26)                1.5294         estimate D2E/DX2                !
 ! R40   R(25,38)                1.5453         estimate D2E/DX2                !
 ! R41   R(25,39)                1.5452         estimate D2E/DX2                !
 ! R42   R(26,27)                1.421          estimate D2E/DX2                !
 ! R43   R(26,32)                1.3813         estimate D2E/DX2                !
 ! R44   R(27,35)                1.3918         estimate D2E/DX2                !
 ! R45   R(28,29)                1.4116         estimate D2E/DX2                !
 ! R46   R(28,44)                1.0878         estimate D2E/DX2                !
 ! R47   R(29,30)                1.4206         estimate D2E/DX2                !
 ! R48   R(29,61)                1.4396         estimate D2E/DX2                !
 ! R49   R(30,31)                1.3981         estimate D2E/DX2                !
 ! R50   R(30,60)                1.7593         estimate D2E/DX2                !
 ! R51   R(31,45)                1.0865         estimate D2E/DX2                !
 ! R52   R(32,33)                1.4116         estimate D2E/DX2                !
 ! R53   R(32,42)                1.0878         estimate D2E/DX2                !
 ! R54   R(33,34)                1.4206         estimate D2E/DX2                !
 ! R55   R(34,35)                1.3981         estimate D2E/DX2                !
 ! R56   R(35,43)                1.0865         estimate D2E/DX2                !
 ! R57   R(36,46)                1.0963         estimate D2E/DX2                !
 ! R58   R(36,47)                1.0963         estimate D2E/DX2                !
 ! R59   R(36,48)                1.0946         estimate D2E/DX2                !
 ! R60   R(37,49)                1.0946         estimate D2E/DX2                !
 ! R61   R(37,50)                1.0962         estimate D2E/DX2                !
 ! R62   R(37,51)                1.0963         estimate D2E/DX2                !
 ! R63   R(38,55)                1.0963         estimate D2E/DX2                !
 ! R64   R(38,56)                1.0963         estimate D2E/DX2                !
 ! R65   R(38,57)                1.0946         estimate D2E/DX2                !
 ! R66   R(39,52)                1.0963         estimate D2E/DX2                !
 ! R67   R(39,53)                1.0946         estimate D2E/DX2                !
 ! R68   R(39,54)                1.0963         estimate D2E/DX2                !
 ! R69   R(58,61)                1.0851         estimate D2E/DX2                !
 ! R70   R(60,62)                1.7517         estimate D2E/DX2                !
 ! R71   R(61,62)                1.3583         estimate D2E/DX2                !
 ! R72   R(63,64)                1.4262         estimate D2E/DX2                !
 ! R73   R(63,65)                1.37           estimate D2E/DX2                !
 ! R74   R(63,123)               1.5            estimate D2E/DX2                !
 ! R75   R(64,66)                1.339          estimate D2E/DX2                !
 ! R76   R(64,72)                1.4515         estimate D2E/DX2                !
 ! R77   R(65,70)                1.087          estimate D2E/DX2                !
 ! R78   R(65,71)                1.4334         estimate D2E/DX2                !
 ! R79   R(66,68)                1.6462         estimate D2E/DX2                !
 ! R80   R(67,68)                1.6442         estimate D2E/DX2                !
 ! R81   R(67,72)                1.3402         estimate D2E/DX2                !
 ! R82   R(69,71)                1.0859         estimate D2E/DX2                !
 ! R83   R(71,73)                1.3715         estimate D2E/DX2                !
 ! R84   R(72,73)                1.4247         estimate D2E/DX2                !
 ! R85   R(74,75)                1.3583         estimate D2E/DX2                !
 ! R86   R(74,76)                1.7517         estimate D2E/DX2                !
 ! R87   R(74,124)               1.0822         estimate D2E/DX2                !
 ! R88   R(75,94)                1.4396         estimate D2E/DX2                !
 ! R89   R(75,120)               1.0851         estimate D2E/DX2                !
 ! R90   R(76,95)                1.7593         estimate D2E/DX2                !
 ! R91   R(77,78)                1.4126         estimate D2E/DX2                !
 ! R92   R(77,82)                1.3896         estimate D2E/DX2                !
 ! R93   R(77,86)                1.5289         estimate D2E/DX2                !
 ! R94   R(78,79)                1.4008         estimate D2E/DX2                !
 ! R95   R(78,88)                1.465          estimate D2E/DX2                !
 ! R96   R(79,80)                1.3897         estimate D2E/DX2                !
 ! R97   R(79,102)               1.0879         estimate D2E/DX2                !
 ! R98   R(80,81)                1.4126         estimate D2E/DX2                !
 ! R99   R(80,83)                1.529          estimate D2E/DX2                !
 ! R100  R(81,82)                1.4008         estimate D2E/DX2                !
 ! R101  R(81,85)                1.465          estimate D2E/DX2                !
 ! R102  R(82,101)               1.0879         estimate D2E/DX2                !
 ! R103  R(83,84)                1.5294         estimate D2E/DX2                !
 ! R104  R(83,97)                1.5453         estimate D2E/DX2                !
 ! R105  R(83,98)                1.5452         estimate D2E/DX2                !
 ! R106  R(84,85)                1.421          estimate D2E/DX2                !
 ! R107  R(84,89)                1.3813         estimate D2E/DX2                !
 ! R108  R(85,92)                1.3918         estimate D2E/DX2                !
 ! R109  R(86,87)                1.5294         estimate D2E/DX2                !
 ! R110  R(86,99)                1.5453         estimate D2E/DX2                !
 ! R111  R(86,100)               1.5452         estimate D2E/DX2                !
 ! R112  R(87,88)                1.421          estimate D2E/DX2                !
 ! R113  R(87,93)                1.3813         estimate D2E/DX2                !
 ! R114  R(88,96)                1.3918         estimate D2E/DX2                !
 ! R115  R(89,90)                1.4116         estimate D2E/DX2                !
 ! R116  R(89,105)               1.0878         estimate D2E/DX2                !
 ! R117  R(90,91)                1.4206         estimate D2E/DX2                !
 ! R118  R(90,122)               1.4396         estimate D2E/DX2                !
 ! R119  R(91,92)                1.3981         estimate D2E/DX2                !
 ! R120  R(91,121)               1.7593         estimate D2E/DX2                !
 ! R121  R(92,106)               1.0865         estimate D2E/DX2                !
 ! R122  R(93,94)                1.4116         estimate D2E/DX2                !
 ! R123  R(93,103)               1.0878         estimate D2E/DX2                !
 ! R124  R(94,95)                1.4206         estimate D2E/DX2                !
 ! R125  R(95,96)                1.3981         estimate D2E/DX2                !
 ! R126  R(96,104)               1.0865         estimate D2E/DX2                !
 ! R127  R(97,107)               1.0963         estimate D2E/DX2                !
 ! R128  R(97,108)               1.0963         estimate D2E/DX2                !
 ! R129  R(97,109)               1.0946         estimate D2E/DX2                !
 ! R130  R(98,110)               1.0946         estimate D2E/DX2                !
 ! R131  R(98,111)               1.0962         estimate D2E/DX2                !
 ! R132  R(98,112)               1.0963         estimate D2E/DX2                !
 ! R133  R(99,116)               1.0963         estimate D2E/DX2                !
 ! R134  R(99,117)               1.0963         estimate D2E/DX2                !
 ! R135  R(99,118)               1.0946         estimate D2E/DX2                !
 ! R136  R(100,113)              1.0963         estimate D2E/DX2                !
 ! R137  R(100,114)              1.0946         estimate D2E/DX2                !
 ! R138  R(100,115)              1.0963         estimate D2E/DX2                !
 ! R139  R(119,122)              1.0851         estimate D2E/DX2                !
 ! R140  R(121,123)              1.7517         estimate D2E/DX2                !
 ! R141  R(122,123)              1.3583         estimate D2E/DX2                !
 ! A1    A(2,1,3)              118.094          estimate D2E/DX2                !
 ! A2    A(2,1,62)             121.6261         estimate D2E/DX2                !
 ! A3    A(3,1,62)             116.8402         estimate D2E/DX2                !
 ! A4    A(1,2,4)              126.2504         estimate D2E/DX2                !
 ! A5    A(1,2,10)             120.0658         estimate D2E/DX2                !
 ! A6    A(4,2,10)             113.6838         estimate D2E/DX2                !
 ! A7    A(1,3,8)              119.6369         estimate D2E/DX2                !
 ! A8    A(1,3,9)              121.8405         estimate D2E/DX2                !
 ! A9    A(8,3,9)              118.5227         estimate D2E/DX2                !
 ! A10   A(2,4,6)              106.1244         estimate D2E/DX2                !
 ! A11   A(6,5,10)             106.1244         estimate D2E/DX2                !
 ! A12   A(4,6,5)              100.3833         estimate D2E/DX2                !
 ! A13   A(3,9,7)              118.5234         estimate D2E/DX2                !
 ! A14   A(3,9,11)             121.8399         estimate D2E/DX2                !
 ! A15   A(7,9,11)             119.6366         estimate D2E/DX2                !
 ! A16   A(2,10,5)             113.6842         estimate D2E/DX2                !
 ! A17   A(2,10,11)            120.0656         estimate D2E/DX2                !
 ! A18   A(5,10,11)            126.2502         estimate D2E/DX2                !
 ! A19   A(9,11,10)            118.0942         estimate D2E/DX2                !
 ! A20   A(9,11,12)            122.2867         estimate D2E/DX2                !
 ! A21   A(10,11,12)           119.6191         estimate D2E/DX2                !
 ! A22   A(14,13,15)           113.0704         estimate D2E/DX2                !
 ! A23   A(14,13,73)           114.195          estimate D2E/DX2                !
 ! A24   A(15,13,73)           132.5545         estimate D2E/DX2                !
 ! A25   A(13,14,33)           113.1625         estimate D2E/DX2                !
 ! A26   A(13,14,59)           123.4466         estimate D2E/DX2                !
 ! A27   A(33,14,59)           123.3909         estimate D2E/DX2                !
 ! A28   A(13,15,34)            90.9694         estimate D2E/DX2                !
 ! A29   A(17,16,21)           120.7282         estimate D2E/DX2                !
 ! A30   A(17,16,25)           110.9557         estimate D2E/DX2                !
 ! A31   A(21,16,25)           128.3161         estimate D2E/DX2                !
 ! A32   A(16,17,18)           121.0052         estimate D2E/DX2                !
 ! A33   A(16,17,27)           108.5913         estimate D2E/DX2                !
 ! A34   A(18,17,27)           130.4035         estimate D2E/DX2                !
 ! A35   A(17,18,19)           118.2662         estimate D2E/DX2                !
 ! A36   A(17,18,41)           120.7062         estimate D2E/DX2                !
 ! A37   A(19,18,41)           121.0276         estimate D2E/DX2                !
 ! A38   A(18,19,20)           120.7281         estimate D2E/DX2                !
 ! A39   A(18,19,22)           128.3173         estimate D2E/DX2                !
 ! A40   A(20,19,22)           110.9546         estimate D2E/DX2                !
 ! A41   A(19,20,21)           121.0062         estimate D2E/DX2                !
 ! A42   A(19,20,24)           108.5936         estimate D2E/DX2                !
 ! A43   A(21,20,24)           130.4002         estimate D2E/DX2                !
 ! A44   A(16,21,20)           118.266          estimate D2E/DX2                !
 ! A45   A(16,21,40)           121.0277         estimate D2E/DX2                !
 ! A46   A(20,21,40)           120.7063         estimate D2E/DX2                !
 ! A47   A(19,22,23)           101.35           estimate D2E/DX2                !
 ! A48   A(19,22,36)           111.3045         estimate D2E/DX2                !
 ! A49   A(19,22,37)           111.3293         estimate D2E/DX2                !
 ! A50   A(23,22,36)           111.3441         estimate D2E/DX2                !
 ! A51   A(23,22,37)           111.3729         estimate D2E/DX2                !
 ! A52   A(36,22,37)           109.9164         estimate D2E/DX2                !
 ! A53   A(22,23,24)           110.6247         estimate D2E/DX2                !
 ! A54   A(22,23,28)           128.44           estimate D2E/DX2                !
 ! A55   A(24,23,28)           120.9353         estimate D2E/DX2                !
 ! A56   A(20,24,23)           108.4771         estimate D2E/DX2                !
 ! A57   A(20,24,31)           130.2482         estimate D2E/DX2                !
 ! A58   A(23,24,31)           121.2747         estimate D2E/DX2                !
 ! A59   A(16,25,26)           101.3504         estimate D2E/DX2                !
 ! A60   A(16,25,38)           111.3039         estimate D2E/DX2                !
 ! A61   A(16,25,39)           111.3307         estimate D2E/DX2                !
 ! A62   A(26,25,38)           111.345          estimate D2E/DX2                !
 ! A63   A(26,25,39)           111.3724         estimate D2E/DX2                !
 ! A64   A(38,25,39)           109.915          estimate D2E/DX2                !
 ! A65   A(25,26,27)           110.6244         estimate D2E/DX2                !
 ! A66   A(25,26,32)           128.4388         estimate D2E/DX2                !
 ! A67   A(27,26,32)           120.9368         estimate D2E/DX2                !
 ! A68   A(17,27,26)           108.4782         estimate D2E/DX2                !
 ! A69   A(17,27,35)           130.2498         estimate D2E/DX2                !
 ! A70   A(26,27,35)           121.272          estimate D2E/DX2                !
 ! A71   A(23,28,29)           119.0052         estimate D2E/DX2                !
 ! A72   A(23,28,44)           121.346          estimate D2E/DX2                !
 ! A73   A(29,28,44)           119.6488         estimate D2E/DX2                !
 ! A74   A(28,29,30)           119.1597         estimate D2E/DX2                !
 ! A75   A(28,29,61)           128.9862         estimate D2E/DX2                !
 ! A76   A(30,29,61)           111.8541         estimate D2E/DX2                !
 ! A77   A(29,30,31)           122.1917         estimate D2E/DX2                !
 ! A78   A(29,30,60)           110.9439         estimate D2E/DX2                !
 ! A79   A(31,30,60)           126.8644         estimate D2E/DX2                !
 ! A80   A(24,31,30)           117.4334         estimate D2E/DX2                !
 ! A81   A(24,31,45)           121.4782         estimate D2E/DX2                !
 ! A82   A(30,31,45)           121.0885         estimate D2E/DX2                !
 ! A83   A(26,32,33)           119.0058         estimate D2E/DX2                !
 ! A84   A(26,32,42)           121.3469         estimate D2E/DX2                !
 ! A85   A(33,32,42)           119.6474         estimate D2E/DX2                !
 ! A86   A(14,33,32)           128.9871         estimate D2E/DX2                !
 ! A87   A(14,33,34)           111.8539         estimate D2E/DX2                !
 ! A88   A(32,33,34)           119.1589         estimate D2E/DX2                !
 ! A89   A(15,34,33)           110.9438         estimate D2E/DX2                !
 ! A90   A(15,34,35)           126.8649         estimate D2E/DX2                !
 ! A91   A(33,34,35)           122.1914         estimate D2E/DX2                !
 ! A92   A(27,35,34)           117.4352         estimate D2E/DX2                !
 ! A93   A(27,35,43)           121.4766         estimate D2E/DX2                !
 ! A94   A(34,35,43)           121.0882         estimate D2E/DX2                !
 ! A95   A(22,36,46)           110.7184         estimate D2E/DX2                !
 ! A96   A(22,36,47)           110.6952         estimate D2E/DX2                !
 ! A97   A(22,36,48)           111.1032         estimate D2E/DX2                !
 ! A98   A(46,36,47)           107.8345         estimate D2E/DX2                !
 ! A99   A(46,36,48)           108.1895         estimate D2E/DX2                !
 ! A100  A(47,36,48)           108.1828         estimate D2E/DX2                !
 ! A101  A(22,37,49)           111.1006         estimate D2E/DX2                !
 ! A102  A(22,37,50)           110.689          estimate D2E/DX2                !
 ! A103  A(22,37,51)           110.7139         estimate D2E/DX2                !
 ! A104  A(49,37,50)           108.1912         estimate D2E/DX2                !
 ! A105  A(49,37,51)           108.1952         estimate D2E/DX2                !
 ! A106  A(50,37,51)           107.8343         estimate D2E/DX2                !
 ! A107  A(25,38,55)           110.7166         estimate D2E/DX2                !
 ! A108  A(25,38,56)           110.695          estimate D2E/DX2                !
 ! A109  A(25,38,57)           111.1019         estimate D2E/DX2                !
 ! A110  A(55,38,56)           107.8354         estimate D2E/DX2                !
 ! A111  A(55,38,57)           108.1908         estimate D2E/DX2                !
 ! A112  A(56,38,57)           108.184          estimate D2E/DX2                !
 ! A113  A(25,39,52)           110.7136         estimate D2E/DX2                !
 ! A114  A(25,39,53)           111.1016         estimate D2E/DX2                !
 ! A115  A(25,39,54)           110.6899         estimate D2E/DX2                !
 ! A116  A(52,39,53)           108.1941         estimate D2E/DX2                !
 ! A117  A(52,39,54)           107.8346         estimate D2E/DX2                !
 ! A118  A(53,39,54)           108.1904         estimate D2E/DX2                !
 ! A119  A(30,60,62)            90.9687         estimate D2E/DX2                !
 ! A120  A(29,61,58)           123.3909         estimate D2E/DX2                !
 ! A121  A(29,61,62)           113.1625         estimate D2E/DX2                !
 ! A122  A(58,61,62)           123.4466         estimate D2E/DX2                !
 ! A123  A(1,62,60)            128.6393         estimate D2E/DX2                !
 ! A124  A(1,62,61)            115.6835         estimate D2E/DX2                !
 ! A125  A(60,62,61)           113.0709         estimate D2E/DX2                !
 ! A126  A(64,63,65)           118.0921         estimate D2E/DX2                !
 ! A127  A(64,63,123)          119.5349         estimate D2E/DX2                !
 ! A128  A(65,63,123)          122.373          estimate D2E/DX2                !
 ! A129  A(63,64,66)           126.2567         estimate D2E/DX2                !
 ! A130  A(63,64,72)           120.1183         estimate D2E/DX2                !
 ! A131  A(66,64,72)           113.625          estimate D2E/DX2                !
 ! A132  A(63,65,70)           119.6333         estimate D2E/DX2                !
 ! A133  A(63,65,71)           121.7898         estimate D2E/DX2                !
 ! A134  A(70,65,71)           118.5768         estimate D2E/DX2                !
 ! A135  A(64,66,68)           106.1544         estimate D2E/DX2                !
 ! A136  A(68,67,72)           106.0943         estimate D2E/DX2                !
 ! A137  A(66,68,67)           100.3833         estimate D2E/DX2                !
 ! A138  A(65,71,69)           118.4693         estimate D2E/DX2                !
 ! A139  A(65,71,73)           121.8906         estimate D2E/DX2                !
 ! A140  A(69,71,73)           119.6402         estimate D2E/DX2                !
 ! A141  A(64,72,67)           113.743          estimate D2E/DX2                !
 ! A142  A(64,72,73)           120.0131         estimate D2E/DX2                !
 ! A143  A(67,72,73)           126.244          estimate D2E/DX2                !
 ! A144  A(13,73,71)           123.316          estimate D2E/DX2                !
 ! A145  A(13,73,72)           118.5494         estimate D2E/DX2                !
 ! A146  A(71,73,72)           118.0961         estimate D2E/DX2                !
 ! A147  A(75,74,76)           113.0704         estimate D2E/DX2                !
 ! A148  A(75,74,124)          127.7178         estimate D2E/DX2                !
 ! A149  A(76,74,124)          119.2119         estimate D2E/DX2                !
 ! A150  A(74,75,94)           113.1625         estimate D2E/DX2                !
 ! A151  A(74,75,120)          123.4466         estimate D2E/DX2                !
 ! A152  A(94,75,120)          123.3909         estimate D2E/DX2                !
 ! A153  A(74,76,95)            90.9694         estimate D2E/DX2                !
 ! A154  A(78,77,82)           120.7282         estimate D2E/DX2                !
 ! A155  A(78,77,86)           110.9557         estimate D2E/DX2                !
 ! A156  A(82,77,86)           128.3161         estimate D2E/DX2                !
 ! A157  A(77,78,79)           121.0052         estimate D2E/DX2                !
 ! A158  A(77,78,88)           108.5913         estimate D2E/DX2                !
 ! A159  A(79,78,88)           130.4035         estimate D2E/DX2                !
 ! A160  A(78,79,80)           118.2662         estimate D2E/DX2                !
 ! A161  A(78,79,102)          120.7062         estimate D2E/DX2                !
 ! A162  A(80,79,102)          121.0276         estimate D2E/DX2                !
 ! A163  A(79,80,81)           120.7281         estimate D2E/DX2                !
 ! A164  A(79,80,83)           128.3173         estimate D2E/DX2                !
 ! A165  A(81,80,83)           110.9546         estimate D2E/DX2                !
 ! A166  A(80,81,82)           121.0062         estimate D2E/DX2                !
 ! A167  A(80,81,85)           108.5936         estimate D2E/DX2                !
 ! A168  A(82,81,85)           130.4002         estimate D2E/DX2                !
 ! A169  A(77,82,81)           118.266          estimate D2E/DX2                !
 ! A170  A(77,82,101)          121.0277         estimate D2E/DX2                !
 ! A171  A(81,82,101)          120.7063         estimate D2E/DX2                !
 ! A172  A(80,83,84)           101.35           estimate D2E/DX2                !
 ! A173  A(80,83,97)           111.3045         estimate D2E/DX2                !
 ! A174  A(80,83,98)           111.3293         estimate D2E/DX2                !
 ! A175  A(84,83,97)           111.3441         estimate D2E/DX2                !
 ! A176  A(84,83,98)           111.3729         estimate D2E/DX2                !
 ! A177  A(97,83,98)           109.9164         estimate D2E/DX2                !
 ! A178  A(83,84,85)           110.6247         estimate D2E/DX2                !
 ! A179  A(83,84,89)           128.44           estimate D2E/DX2                !
 ! A180  A(85,84,89)           120.9353         estimate D2E/DX2                !
 ! A181  A(81,85,84)           108.4771         estimate D2E/DX2                !
 ! A182  A(81,85,92)           130.2482         estimate D2E/DX2                !
 ! A183  A(84,85,92)           121.2747         estimate D2E/DX2                !
 ! A184  A(77,86,87)           101.3504         estimate D2E/DX2                !
 ! A185  A(77,86,99)           111.3039         estimate D2E/DX2                !
 ! A186  A(77,86,100)          111.3307         estimate D2E/DX2                !
 ! A187  A(87,86,99)           111.345          estimate D2E/DX2                !
 ! A188  A(87,86,100)          111.3724         estimate D2E/DX2                !
 ! A189  A(99,86,100)          109.915          estimate D2E/DX2                !
 ! A190  A(86,87,88)           110.6244         estimate D2E/DX2                !
 ! A191  A(86,87,93)           128.4388         estimate D2E/DX2                !
 ! A192  A(88,87,93)           120.9368         estimate D2E/DX2                !
 ! A193  A(78,88,87)           108.4782         estimate D2E/DX2                !
 ! A194  A(78,88,96)           130.2498         estimate D2E/DX2                !
 ! A195  A(87,88,96)           121.272          estimate D2E/DX2                !
 ! A196  A(84,89,90)           119.0052         estimate D2E/DX2                !
 ! A197  A(84,89,105)          121.346          estimate D2E/DX2                !
 ! A198  A(90,89,105)          119.6488         estimate D2E/DX2                !
 ! A199  A(89,90,91)           119.1597         estimate D2E/DX2                !
 ! A200  A(89,90,122)          128.9862         estimate D2E/DX2                !
 ! A201  A(91,90,122)          111.8541         estimate D2E/DX2                !
 ! A202  A(90,91,92)           122.1917         estimate D2E/DX2                !
 ! A203  A(90,91,121)          110.9439         estimate D2E/DX2                !
 ! A204  A(92,91,121)          126.8644         estimate D2E/DX2                !
 ! A205  A(85,92,91)           117.4334         estimate D2E/DX2                !
 ! A206  A(85,92,106)          121.4781         estimate D2E/DX2                !
 ! A207  A(91,92,106)          121.0885         estimate D2E/DX2                !
 ! A208  A(87,93,94)           119.0058         estimate D2E/DX2                !
 ! A209  A(87,93,103)          121.3469         estimate D2E/DX2                !
 ! A210  A(94,93,103)          119.6474         estimate D2E/DX2                !
 ! A211  A(75,94,93)           128.9871         estimate D2E/DX2                !
 ! A212  A(75,94,95)           111.8539         estimate D2E/DX2                !
 ! A213  A(93,94,95)           119.1589         estimate D2E/DX2                !
 ! A214  A(76,95,94)           110.9438         estimate D2E/DX2                !
 ! A215  A(76,95,96)           126.8649         estimate D2E/DX2                !
 ! A216  A(94,95,96)           122.1914         estimate D2E/DX2                !
 ! A217  A(88,96,95)           117.4352         estimate D2E/DX2                !
 ! A218  A(88,96,104)          121.4766         estimate D2E/DX2                !
 ! A219  A(95,96,104)          121.0882         estimate D2E/DX2                !
 ! A220  A(83,97,107)          110.7184         estimate D2E/DX2                !
 ! A221  A(83,97,108)          110.6952         estimate D2E/DX2                !
 ! A222  A(83,97,109)          111.1032         estimate D2E/DX2                !
 ! A223  A(107,97,108)         107.8345         estimate D2E/DX2                !
 ! A224  A(107,97,109)         108.1895         estimate D2E/DX2                !
 ! A225  A(108,97,109)         108.1828         estimate D2E/DX2                !
 ! A226  A(83,98,110)          111.1006         estimate D2E/DX2                !
 ! A227  A(83,98,111)          110.689          estimate D2E/DX2                !
 ! A228  A(83,98,112)          110.7139         estimate D2E/DX2                !
 ! A229  A(110,98,111)         108.1912         estimate D2E/DX2                !
 ! A230  A(110,98,112)         108.1952         estimate D2E/DX2                !
 ! A231  A(111,98,112)         107.8343         estimate D2E/DX2                !
 ! A232  A(86,99,116)          110.7166         estimate D2E/DX2                !
 ! A233  A(86,99,117)          110.695          estimate D2E/DX2                !
 ! A234  A(86,99,118)          111.1019         estimate D2E/DX2                !
 ! A235  A(116,99,117)         107.8354         estimate D2E/DX2                !
 ! A236  A(116,99,118)         108.1908         estimate D2E/DX2                !
 ! A237  A(117,99,118)         108.184          estimate D2E/DX2                !
 ! A238  A(86,100,113)         110.7136         estimate D2E/DX2                !
 ! A239  A(86,100,114)         111.1016         estimate D2E/DX2                !
 ! A240  A(86,100,115)         110.6899         estimate D2E/DX2                !
 ! A241  A(113,100,114)        108.1941         estimate D2E/DX2                !
 ! A242  A(113,100,115)        107.8346         estimate D2E/DX2                !
 ! A243  A(114,100,115)        108.1904         estimate D2E/DX2                !
 ! A244  A(91,121,123)          90.9687         estimate D2E/DX2                !
 ! A245  A(90,122,119)         123.3909         estimate D2E/DX2                !
 ! A246  A(90,122,123)         113.1625         estimate D2E/DX2                !
 ! A247  A(119,122,123)        123.4466         estimate D2E/DX2                !
 ! A248  A(63,123,121)         123.3147         estimate D2E/DX2                !
 ! A249  A(63,123,122)         123.602          estimate D2E/DX2                !
 ! A250  A(121,123,122)        113.0709         estimate D2E/DX2                !
 ! D1    D(3,1,2,4)           -180.0            estimate D2E/DX2                !
 ! D2    D(3,1,2,10)             0.0            estimate D2E/DX2                !
 ! D3    D(62,1,2,4)            21.5941         estimate D2E/DX2                !
 ! D4    D(62,1,2,10)         -158.4059         estimate D2E/DX2                !
 ! D5    D(2,1,3,8)           -180.0            estimate D2E/DX2                !
 ! D6    D(2,1,3,9)              0.0            estimate D2E/DX2                !
 ! D7    D(62,1,3,8)           -20.5612         estimate D2E/DX2                !
 ! D8    D(62,1,3,9)           159.4388         estimate D2E/DX2                !
 ! D9    D(2,1,62,60)          154.0825         estimate D2E/DX2                !
 ! D10   D(2,1,62,61)          -45.6734         estimate D2E/DX2                !
 ! D11   D(3,1,62,60)           -4.5797         estimate D2E/DX2                !
 ! D12   D(3,1,62,61)          155.6644         estimate D2E/DX2                !
 ! D13   D(1,2,4,6)            180.0            estimate D2E/DX2                !
 ! D14   D(10,2,4,6)             0.0            estimate D2E/DX2                !
 ! D15   D(1,2,10,5)          -180.0            estimate D2E/DX2                !
 ! D16   D(1,2,10,11)            0.0            estimate D2E/DX2                !
 ! D17   D(4,2,10,5)             0.0            estimate D2E/DX2                !
 ! D18   D(4,2,10,11)          180.0            estimate D2E/DX2                !
 ! D19   D(1,3,9,7)           -180.0            estimate D2E/DX2                !
 ! D20   D(1,3,9,11)             0.0            estimate D2E/DX2                !
 ! D21   D(8,3,9,7)              0.0            estimate D2E/DX2                !
 ! D22   D(8,3,9,11)           180.0            estimate D2E/DX2                !
 ! D23   D(2,4,6,5)              0.0            estimate D2E/DX2                !
 ! D24   D(10,5,6,4)             0.0            estimate D2E/DX2                !
 ! D25   D(6,5,10,2)             0.0            estimate D2E/DX2                !
 ! D26   D(6,5,10,11)          180.0            estimate D2E/DX2                !
 ! D27   D(3,9,11,10)            0.0            estimate D2E/DX2                !
 ! D28   D(3,9,11,12)          180.0            estimate D2E/DX2                !
 ! D29   D(7,9,11,10)          180.0            estimate D2E/DX2                !
 ! D30   D(7,9,11,12)            0.0            estimate D2E/DX2                !
 ! D31   D(2,10,11,9)            0.0            estimate D2E/DX2                !
 ! D32   D(2,10,11,12)        -180.0            estimate D2E/DX2                !
 ! D33   D(5,10,11,9)          180.0            estimate D2E/DX2                !
 ! D34   D(5,10,11,12)           0.0            estimate D2E/DX2                !
 ! D35   D(15,13,14,33)         -0.0024         estimate D2E/DX2                !
 ! D36   D(15,13,14,59)        179.9959         estimate D2E/DX2                !
 ! D37   D(73,13,14,33)       -175.7478         estimate D2E/DX2                !
 ! D38   D(73,13,14,59)          4.2506         estimate D2E/DX2                !
 ! D39   D(14,13,15,34)          0.0111         estimate D2E/DX2                !
 ! D40   D(73,13,15,34)        174.74           estimate D2E/DX2                !
 ! D41   D(14,13,73,71)        179.491          estimate D2E/DX2                !
 ! D42   D(14,13,73,72)         -2.8125         estimate D2E/DX2                !
 ! D43   D(15,13,73,71)          4.8076         estimate D2E/DX2                !
 ! D44   D(15,13,73,72)       -177.4959         estimate D2E/DX2                !
 ! D45   D(13,14,33,32)        179.9963         estimate D2E/DX2                !
 ! D46   D(13,14,33,34)         -0.0105         estimate D2E/DX2                !
 ! D47   D(59,14,33,32)         -0.002          estimate D2E/DX2                !
 ! D48   D(59,14,33,34)        179.9912         estimate D2E/DX2                !
 ! D49   D(13,15,34,33)         -0.0167         estimate D2E/DX2                !
 ! D50   D(13,15,34,35)       -179.9914         estimate D2E/DX2                !
 ! D51   D(21,16,17,18)         -0.0077         estimate D2E/DX2                !
 ! D52   D(21,16,17,27)        179.9931         estimate D2E/DX2                !
 ! D53   D(25,16,17,18)        179.9864         estimate D2E/DX2                !
 ! D54   D(25,16,17,27)         -0.0128         estimate D2E/DX2                !
 ! D55   D(17,16,21,20)          0.0098         estimate D2E/DX2                !
 ! D56   D(17,16,21,40)       -179.9781         estimate D2E/DX2                !
 ! D57   D(25,16,21,20)       -179.9831         estimate D2E/DX2                !
 ! D58   D(25,16,21,40)          0.0289         estimate D2E/DX2                !
 ! D59   D(17,16,25,26)          0.0075         estimate D2E/DX2                !
 ! D60   D(17,16,25,38)        118.4809         estimate D2E/DX2                !
 ! D61   D(17,16,25,39)       -118.5096         estimate D2E/DX2                !
 ! D62   D(21,16,25,26)       -179.999          estimate D2E/DX2                !
 ! D63   D(21,16,25,38)        -61.5255         estimate D2E/DX2                !
 ! D64   D(21,16,25,39)         61.4839         estimate D2E/DX2                !
 ! D65   D(16,17,18,19)         -0.0028         estimate D2E/DX2                !
 ! D66   D(16,17,18,41)        179.99           estimate D2E/DX2                !
 ! D67   D(27,17,18,19)        179.9962         estimate D2E/DX2                !
 ! D68   D(27,17,18,41)         -0.011          estimate D2E/DX2                !
 ! D69   D(16,17,27,26)          0.013          estimate D2E/DX2                !
 ! D70   D(16,17,27,35)       -179.985          estimate D2E/DX2                !
 ! D71   D(18,17,27,26)       -179.986          estimate D2E/DX2                !
 ! D72   D(18,17,27,35)          0.016          estimate D2E/DX2                !
 ! D73   D(17,18,19,20)          0.0108         estimate D2E/DX2                !
 ! D74   D(17,18,19,22)       -179.9839         estimate D2E/DX2                !
 ! D75   D(41,18,19,20)       -179.982          estimate D2E/DX2                !
 ! D76   D(41,18,19,22)          0.0233         estimate D2E/DX2                !
 ! D77   D(18,19,20,21)         -0.0087         estimate D2E/DX2                !
 ! D78   D(18,19,20,24)        179.9978         estimate D2E/DX2                !
 ! D79   D(22,19,20,21)        179.9868         estimate D2E/DX2                !
 ! D80   D(22,19,20,24)         -0.0066         estimate D2E/DX2                !
 ! D81   D(18,19,22,23)       -179.9936         estimate D2E/DX2                !
 ! D82   D(18,19,22,36)        -61.5211         estimate D2E/DX2                !
 ! D83   D(18,19,22,37)         61.4896         estimate D2E/DX2                !
 ! D84   D(20,19,22,23)          0.0113         estimate D2E/DX2                !
 ! D85   D(20,19,22,36)        118.4838         estimate D2E/DX2                !
 ! D86   D(20,19,22,37)       -118.5055         estimate D2E/DX2                !
 ! D87   D(19,20,21,16)         -0.0018         estimate D2E/DX2                !
 ! D88   D(19,20,21,40)        179.9862         estimate D2E/DX2                !
 ! D89   D(24,20,21,16)        179.99           estimate D2E/DX2                !
 ! D90   D(24,20,21,40)         -0.022          estimate D2E/DX2                !
 ! D91   D(19,20,24,23)         -0.0016         estimate D2E/DX2                !
 ! D92   D(19,20,24,31)       -179.984          estimate D2E/DX2                !
 ! D93   D(21,20,24,23)       -179.9942         estimate D2E/DX2                !
 ! D94   D(21,20,24,31)          0.0233         estimate D2E/DX2                !
 ! D95   D(19,22,23,24)         -0.0123         estimate D2E/DX2                !
 ! D96   D(19,22,23,28)        179.9964         estimate D2E/DX2                !
 ! D97   D(36,22,23,24)       -118.4562         estimate D2E/DX2                !
 ! D98   D(36,22,23,28)         61.5524         estimate D2E/DX2                !
 ! D99   D(37,22,23,24)        118.4731         estimate D2E/DX2                !
 ! D100  D(37,22,23,28)        -61.5182         estimate D2E/DX2                !
 ! D101  D(19,22,36,46)         63.9966         estimate D2E/DX2                !
 ! D102  D(19,22,36,47)       -176.4709         estimate D2E/DX2                !
 ! D103  D(19,22,36,48)        -56.2491         estimate D2E/DX2                !
 ! D104  D(23,22,36,46)        176.2797         estimate D2E/DX2                !
 ! D105  D(23,22,36,47)        -64.1878         estimate D2E/DX2                !
 ! D106  D(23,22,36,48)         56.034          estimate D2E/DX2                !
 ! D107  D(37,22,36,46)        -59.8202         estimate D2E/DX2                !
 ! D108  D(37,22,36,47)         59.7124         estimate D2E/DX2                !
 ! D109  D(37,22,36,48)        179.9342         estimate D2E/DX2                !
 ! D110  D(19,22,37,49)         56.2335         estimate D2E/DX2                !
 ! D111  D(19,22,37,50)        176.4601         estimate D2E/DX2                !
 ! D112  D(19,22,37,51)        -64.0146         estimate D2E/DX2                !
 ! D113  D(23,22,37,49)        -56.0808         estimate D2E/DX2                !
 ! D114  D(23,22,37,50)         64.1458         estimate D2E/DX2                !
 ! D115  D(23,22,37,51)       -176.3289         estimate D2E/DX2                !
 ! D116  D(36,22,37,49)       -179.9641         estimate D2E/DX2                !
 ! D117  D(36,22,37,50)        -59.7376         estimate D2E/DX2                !
 ! D118  D(36,22,37,51)         59.7878         estimate D2E/DX2                !
 ! D119  D(22,23,24,20)          0.0091         estimate D2E/DX2                !
 ! D120  D(22,23,24,31)        179.9935         estimate D2E/DX2                !
 ! D121  D(28,23,24,20)       -179.9987         estimate D2E/DX2                !
 ! D122  D(28,23,24,31)         -0.0144         estimate D2E/DX2                !
 ! D123  D(22,23,28,29)        179.9935         estimate D2E/DX2                !
 ! D124  D(22,23,28,44)          0.0022         estimate D2E/DX2                !
 ! D125  D(24,23,28,29)          0.0029         estimate D2E/DX2                !
 ! D126  D(24,23,28,44)       -179.9884         estimate D2E/DX2                !
 ! D127  D(20,24,31,30)        179.9953         estimate D2E/DX2                !
 ! D128  D(20,24,31,45)          0.0032         estimate D2E/DX2                !
 ! D129  D(23,24,31,30)          0.0147         estimate D2E/DX2                !
 ! D130  D(23,24,31,45)       -179.9773         estimate D2E/DX2                !
 ! D131  D(16,25,26,27)          0.0007         estimate D2E/DX2                !
 ! D132  D(16,25,26,32)       -179.9914         estimate D2E/DX2                !
 ! D133  D(38,25,26,27)       -118.4432         estimate D2E/DX2                !
 ! D134  D(38,25,26,32)         61.5647         estimate D2E/DX2                !
 ! D135  D(39,25,26,27)        118.4878         estimate D2E/DX2                !
 ! D136  D(39,25,26,32)        -61.5044         estimate D2E/DX2                !
 ! D137  D(16,25,38,55)         63.9846         estimate D2E/DX2                !
 ! D138  D(16,25,38,56)       -176.483          estimate D2E/DX2                !
 ! D139  D(16,25,38,57)        -56.2607         estimate D2E/DX2                !
 ! D140  D(26,25,38,55)        176.2684         estimate D2E/DX2                !
 ! D141  D(26,25,38,56)        -64.1992         estimate D2E/DX2                !
 ! D142  D(26,25,38,57)         56.0231         estimate D2E/DX2                !
 ! D143  D(39,25,38,55)        -59.8325         estimate D2E/DX2                !
 ! D144  D(39,25,38,56)         59.6999         estimate D2E/DX2                !
 ! D145  D(39,25,38,57)        179.9222         estimate D2E/DX2                !
 ! D146  D(16,25,39,52)        -64.0204         estimate D2E/DX2                !
 ! D147  D(16,25,39,53)         56.2268         estimate D2E/DX2                !
 ! D148  D(16,25,39,54)        176.4535         estimate D2E/DX2                !
 ! D149  D(26,25,39,52)       -176.3357         estimate D2E/DX2                !
 ! D150  D(26,25,39,53)        -56.0885         estimate D2E/DX2                !
 ! D151  D(26,25,39,54)         64.1382         estimate D2E/DX2                !
 ! D152  D(38,25,39,52)         59.7811         estimate D2E/DX2                !
 ! D153  D(38,25,39,53)       -179.9717         estimate D2E/DX2                !
 ! D154  D(38,25,39,54)        -59.745          estimate D2E/DX2                !
 ! D155  D(25,26,27,17)         -0.0083         estimate D2E/DX2                !
 ! D156  D(25,26,27,35)        179.9899         estimate D2E/DX2                !
 ! D157  D(32,26,27,17)        179.9846         estimate D2E/DX2                !
 ! D158  D(32,26,27,35)         -0.0172         estimate D2E/DX2                !
 ! D159  D(25,26,32,33)        179.9978         estimate D2E/DX2                !
 ! D160  D(25,26,32,42)         -0.0051         estimate D2E/DX2                !
 ! D161  D(27,26,32,33)          0.0063         estimate D2E/DX2                !
 ! D162  D(27,26,32,42)       -179.9966         estimate D2E/DX2                !
 ! D163  D(17,27,35,34)       -179.9891         estimate D2E/DX2                !
 ! D164  D(17,27,35,43)          0.0167         estimate D2E/DX2                !
 ! D165  D(26,27,35,34)          0.0131         estimate D2E/DX2                !
 ! D166  D(26,27,35,43)       -179.981          estimate D2E/DX2                !
 ! D167  D(23,28,29,30)          0.0073         estimate D2E/DX2                !
 ! D168  D(23,28,29,61)       -179.9846         estimate D2E/DX2                !
 ! D169  D(44,28,29,30)        179.9988         estimate D2E/DX2                !
 ! D170  D(44,28,29,61)          0.0069         estimate D2E/DX2                !
 ! D171  D(28,29,30,31)         -0.0067         estimate D2E/DX2                !
 ! D172  D(28,29,30,60)       -179.9972         estimate D2E/DX2                !
 ! D173  D(61,29,30,31)        179.9865         estimate D2E/DX2                !
 ! D174  D(61,29,30,60)         -0.004          estimate D2E/DX2                !
 ! D175  D(28,29,61,58)         -0.0056         estimate D2E/DX2                !
 ! D176  D(28,29,61,62)       -179.9913         estimate D2E/DX2                !
 ! D177  D(30,29,61,58)       -179.998          estimate D2E/DX2                !
 ! D178  D(30,29,61,62)          0.0163         estimate D2E/DX2                !
 ! D179  D(29,30,31,24)         -0.0043         estimate D2E/DX2                !
 ! D180  D(29,30,31,45)        179.9877         estimate D2E/DX2                !
 ! D181  D(60,30,31,24)        179.9846         estimate D2E/DX2                !
 ! D182  D(60,30,31,45)         -0.0234         estimate D2E/DX2                !
 ! D183  D(29,30,60,62)         -0.0064         estimate D2E/DX2                !
 ! D184  D(31,30,60,62)       -179.9963         estimate D2E/DX2                !
 ! D185  D(26,32,33,14)       -179.9997         estimate D2E/DX2                !
 ! D186  D(26,32,33,34)          0.0076         estimate D2E/DX2                !
 ! D187  D(42,32,33,14)          0.0032         estimate D2E/DX2                !
 ! D188  D(42,32,33,34)       -179.9896         estimate D2E/DX2                !
 ! D189  D(14,33,34,15)          0.0184         estimate D2E/DX2                !
 ! D190  D(14,33,34,35)        179.9945         estimate D2E/DX2                !
 ! D191  D(32,33,34,15)       -179.9876         estimate D2E/DX2                !
 ! D192  D(32,33,34,35)         -0.0116         estimate D2E/DX2                !
 ! D193  D(15,34,35,27)        179.9732         estimate D2E/DX2                !
 ! D194  D(15,34,35,43)         -0.0326         estimate D2E/DX2                !
 ! D195  D(33,34,35,27)          0.0011         estimate D2E/DX2                !
 ! D196  D(33,34,35,43)        179.9953         estimate D2E/DX2                !
 ! D197  D(30,60,62,1)         160.6806         estimate D2E/DX2                !
 ! D198  D(30,60,62,61)          0.0161         estimate D2E/DX2                !
 ! D199  D(29,61,62,1)        -163.3447         estimate D2E/DX2                !
 ! D200  D(29,61,62,60)         -0.0214         estimate D2E/DX2                !
 ! D201  D(58,61,62,1)          16.6697         estimate D2E/DX2                !
 ! D202  D(58,61,62,60)        179.9929         estimate D2E/DX2                !
 ! D203  D(65,63,64,66)       -180.0            estimate D2E/DX2                !
 ! D204  D(65,63,64,72)          0.0            estimate D2E/DX2                !
 ! D205  D(123,63,64,66)         0.0459         estimate D2E/DX2                !
 ! D206  D(123,63,64,72)      -179.9541         estimate D2E/DX2                !
 ! D207  D(64,63,65,70)        180.0            estimate D2E/DX2                !
 ! D208  D(64,63,65,71)          0.0            estimate D2E/DX2                !
 ! D209  D(123,63,65,70)        -0.0472         estimate D2E/DX2                !
 ! D210  D(123,63,65,71)       179.9528         estimate D2E/DX2                !
 ! D211  D(64,63,123,121)       -0.6665         estimate D2E/DX2                !
 ! D212  D(64,63,123,122)     -179.2925         estimate D2E/DX2                !
 ! D213  D(65,63,123,121)      179.3814         estimate D2E/DX2                !
 ! D214  D(65,63,123,122)        0.7554         estimate D2E/DX2                !
 ! D215  D(63,64,66,68)        180.0            estimate D2E/DX2                !
 ! D216  D(72,64,66,68)          0.0            estimate D2E/DX2                !
 ! D217  D(63,64,72,67)       -180.0            estimate D2E/DX2                !
 ! D218  D(63,64,72,73)          0.0            estimate D2E/DX2                !
 ! D219  D(66,64,72,67)          0.0            estimate D2E/DX2                !
 ! D220  D(66,64,72,73)        180.0            estimate D2E/DX2                !
 ! D221  D(63,65,71,69)       -180.0            estimate D2E/DX2                !
 ! D222  D(63,65,71,73)          0.0            estimate D2E/DX2                !
 ! D223  D(70,65,71,69)          0.0            estimate D2E/DX2                !
 ! D224  D(70,65,71,73)        180.0            estimate D2E/DX2                !
 ! D225  D(64,66,68,67)          0.0            estimate D2E/DX2                !
 ! D226  D(72,67,68,66)          0.0            estimate D2E/DX2                !
 ! D227  D(68,67,72,64)          0.0            estimate D2E/DX2                !
 ! D228  D(68,67,72,73)        180.0            estimate D2E/DX2                !
 ! D229  D(65,71,73,13)        177.7062         estimate D2E/DX2                !
 ! D230  D(65,71,73,72)          0.0            estimate D2E/DX2                !
 ! D231  D(69,71,73,13)         -2.2938         estimate D2E/DX2                !
 ! D232  D(69,71,73,72)        180.0            estimate D2E/DX2                !
 ! D233  D(64,72,73,13)       -177.8179         estimate D2E/DX2                !
 ! D234  D(64,72,73,71)          0.0            estimate D2E/DX2                !
 ! D235  D(67,72,73,13)          2.1821         estimate D2E/DX2                !
 ! D236  D(67,72,73,71)        180.0            estimate D2E/DX2                !
 ! D237  D(76,74,75,94)         -0.0024         estimate D2E/DX2                !
 ! D238  D(76,74,75,120)       179.9959         estimate D2E/DX2                !
 ! D239  D(124,74,75,94)      -179.9948         estimate D2E/DX2                !
 ! D240  D(124,74,75,120)        0.0035         estimate D2E/DX2                !
 ! D241  D(75,74,76,95)          0.0111         estimate D2E/DX2                !
 ! D242  D(124,74,76,95)      -179.9958         estimate D2E/DX2                !
 ! D243  D(74,75,94,93)        179.9963         estimate D2E/DX2                !
 ! D244  D(74,75,94,95)         -0.0105         estimate D2E/DX2                !
 ! D245  D(120,75,94,93)        -0.002          estimate D2E/DX2                !
 ! D246  D(120,75,94,95)       179.9912         estimate D2E/DX2                !
 ! D247  D(74,76,95,94)         -0.0167         estimate D2E/DX2                !
 ! D248  D(74,76,95,96)       -179.9914         estimate D2E/DX2                !
 ! D249  D(82,77,78,79)         -0.0077         estimate D2E/DX2                !
 ! D250  D(82,77,78,88)        179.9931         estimate D2E/DX2                !
 ! D251  D(86,77,78,79)        179.9864         estimate D2E/DX2                !
 ! D252  D(86,77,78,88)         -0.0128         estimate D2E/DX2                !
 ! D253  D(78,77,82,81)          0.0098         estimate D2E/DX2                !
 ! D254  D(78,77,82,101)      -179.9781         estimate D2E/DX2                !
 ! D255  D(86,77,82,81)       -179.9831         estimate D2E/DX2                !
 ! D256  D(86,77,82,101)         0.029          estimate D2E/DX2                !
 ! D257  D(78,77,86,87)          0.0075         estimate D2E/DX2                !
 ! D258  D(78,77,86,99)        118.4809         estimate D2E/DX2                !
 ! D259  D(78,77,86,100)      -118.5096         estimate D2E/DX2                !
 ! D260  D(82,77,86,87)       -179.999          estimate D2E/DX2                !
 ! D261  D(82,77,86,99)        -61.5255         estimate D2E/DX2                !
 ! D262  D(82,77,86,100)        61.4839         estimate D2E/DX2                !
 ! D263  D(77,78,79,80)         -0.0028         estimate D2E/DX2                !
 ! D264  D(77,78,79,102)       179.99           estimate D2E/DX2                !
 ! D265  D(88,78,79,80)        179.9962         estimate D2E/DX2                !
 ! D266  D(88,78,79,102)        -0.011          estimate D2E/DX2                !
 ! D267  D(77,78,88,87)          0.013          estimate D2E/DX2                !
 ! D268  D(77,78,88,96)       -179.985          estimate D2E/DX2                !
 ! D269  D(79,78,88,87)       -179.986          estimate D2E/DX2                !
[...]
 ! D400  D(119,122,123,121)    179.9929         estimate D2E/DX2                !
 --------------------------------------------------------------------------------
 Trust Radius=3.00D-01 FncErr=1.00D-07 GrdErr=1.00D-06 EigMax=2.50D+02 EigMin=1.00D-04
 Number of steps in this run=    744 maximum allowed number of steps=    744.
 GradGradGradGradGradGradGradGradGradGradGradGradGradGradGradGradGradGrad

 Leave Link  103 at Sat Nov 11 22:40:29 2023, MaxMem=  1207959552 cpu:               0.3 elap:               0.0
 (Enter /opt/apps/chemistry/Gaussian/g16/l202.exe)
 Stoichiometry    C68H46N4S6
 Framework group  C1[X(C68H46N4S6)]
 Deg. of freedom   366
 Full point group                 C1      NOp   1
 Largest Abelian subgroup         C1      NOp   1
 Largest concise Abelian subgroup C1      NOp   1
                         Standard orientation:                         
 ---------------------------------------------------------------------
 Center     Atomic      Atomic             Coordinates (Angstroms)
 Number     Number       Type             X           Y           Z
 ---------------------------------------------------------------------
      1          6           0       17.034652   -0.922337    0.481604
      2          6           0       17.982893    0.033065    0.012719
      3          6           0       17.503106   -2.129065    0.932505
      4          7           0       17.707715    1.255491   -0.460959
      5          7           0       20.174424    0.703947   -0.445947
      6         16           0       19.155668    1.928505   -0.857418
      7          1           0       19.213777   -3.414891    1.310196
      8          1           0       16.802348   -2.875723    1.295526
      9          6           0       18.901983   -2.441846    0.941018
     10          6           0       19.399379   -0.283648    0.021337
     11          6           0       19.844941   -1.550691    0.498702
     12          1           0       20.905309   -1.779778    0.501901
     13          6           0        0.440223    0.958756   -0.088765
     14          6           0        1.019727   -0.268551   -0.141484
     15         16           0        1.604701    2.264598   -0.003101
     16          6           0        7.101595   -1.001847   -0.077650
     17          6           0        6.660211    0.338620   -0.016751
     18          6           0        7.575070    1.397078    0.052586
     19          6           0        8.931501    1.095104    0.060069
     20          6           0        9.372869   -0.245333   -0.000999
     21          6           0        8.458021   -1.303799   -0.070386
     22          6           0       10.116781    2.058440    0.129456
     23          6           0       11.296969    1.086212    0.099462
     24          6           0       10.837665   -0.256380    0.023135
     25          6           0        5.916352   -1.965231   -0.146348
     26          6           0        4.736147   -0.993038   -0.116647
     27          6           0        5.195419    0.349592   -0.040808
     28          6           0       12.647504    1.373628    0.136890
     29          6           0       13.574935    0.310190    0.098115
     30          6           0       13.094725   -1.024592    0.021615
     31          6           0       11.729632   -1.323993   -0.016688
     32          6           0        3.385630   -1.280549   -0.153608
     33          6           0        2.458138   -0.217166   -0.115048
     34          6           0        2.938296    1.117692   -0.039556
     35          6           0        4.303380    1.417175   -0.001669
     36          6           0       10.139903    3.008811   -1.088766
     37          6           0       10.097275    2.880243    1.437886
     38          6           0        5.935637   -2.786633   -1.455091
     39          6           0        5.893512   -2.916001    1.071508
     40          1           0        8.803351   -2.334345   -0.117462
     41          1           0        7.229758    2.427649    0.099143
     42          1           0        3.026694   -2.305799   -0.211600
     43          1           0        4.650866    2.444997    0.056011
     44          1           0       13.006467    2.398824    0.195501
     45          1           0       11.382115   -2.351739   -0.075417
     46          1           0        9.255315    3.656355   -1.092336
     47          1           0       11.026988    3.652354   -1.061306
     48          1           0       10.155148    2.445967   -2.027491
     49          1           0       10.081358    2.225001    2.314585
     50          1           0       10.983918    3.521344    1.505832
     51          1           0        9.212244    3.525981    1.477038
     52          1           0        6.777797   -3.563934    1.074222
     53          1           0        5.879096   -2.353470    2.010421
     54          1           0        5.006130   -3.559123    1.044215
     55          1           0        6.821097   -3.431765   -1.495036
     56          1           0        5.049358   -3.428297   -1.522860
     57          1           0        5.950608   -2.131111   -2.331621
     58          1           0       15.576911    1.286939    0.182250
     59          1           0        0.456182   -1.194079   -0.197788
     60         16           0       14.428259   -2.171593   -0.014485
     61          6           0       15.013330    0.361469    0.125247
     62          6           0       15.592782   -0.865835    0.071947
     63          6           0       -3.934234    0.803152    0.031112
     64          6           0       -3.166644   -0.396535   -0.043184
     65          6           0       -3.263058    1.996493    0.079593
     66          7           0       -3.650227   -1.643923   -0.097725
     67          7           0       -1.125270   -1.533748   -0.136889
     68         16           0       -2.341444   -2.639729   -0.171295
     69          1           0       -1.354881    3.033964    0.098272
     70          1           0       -3.823250    2.926275    0.136559
     71          6           0       -1.831148    2.058972    0.057383
     72          6           0       -1.716711   -0.333276   -0.065675
     73          6           0       -1.057586    0.928659   -0.013509
     74          6           0      -20.646440   -0.489390   -0.004815
     75          6           0      -19.835760   -1.577814   -0.059751
     76         16           0      -19.763036    1.021379    0.070997
     77          6           0      -13.728822   -1.092328   -0.036568
     78          6           0      -14.426471    0.134383    0.025439
     79          6           0      -13.738866    1.353201    0.086989
     80          6           0      -12.349478    1.325772    0.085603
     81          6           0      -11.651852    0.099087    0.023426
     82          6           0      -12.339446   -1.119737   -0.038174
     83          6           0      -11.377976    2.504889    0.145485
     84          6           0      -10.028876    1.785481    0.108790
     85          6           0      -10.213743    0.378326    0.037533
     86          6           0      -14.700274   -2.271483   -0.095761
     87          6           0      -16.049387   -1.552112   -0.059359
     88          6           0      -15.864561   -0.144928    0.011409
     89          6           0       -8.761771    2.334689    0.136547
     90          6           0       -7.642414    1.475810    0.092935
     91          6           0       -7.849321    0.072171    0.021637
     92          6           0       -9.128328   -0.491669   -0.006879
     93          6           0      -17.316452   -2.101409   -0.086650
     94          6           0      -18.435859   -1.242597   -0.043251
     95          6           0      -18.229024    0.161104    0.027039
     96          6           0      -16.950045    0.725021    0.055137
     97          6           0      -11.551323    3.437662   -1.074224
     98          6           0      -11.551385    3.310170    1.452842
     99          6           0      -14.527163   -3.076415   -1.403431
    100          6           0      -14.526575   -3.204593    1.123580
    101          1           0      -11.797221   -2.061641   -0.086143
    102          1           0      -14.281081    2.295133    0.134439
    103          1           0      -17.465654   -3.177583   -0.140714
    104          1           0      -16.812577    1.801450    0.108965
    105          1           0       -8.612526    3.410817    0.191229
    106          1           0       -9.265848   -1.568032   -0.061754
    107          1           0      -12.546613    3.897246   -1.072655
    108          1           0      -10.809059    4.244165   -1.053767
    109          1           0      -11.430983    2.886391   -2.012226
    110          1           0      -11.431609    2.667167    2.330565
    111          1           0      -10.808810    4.114304    1.513791
    112          1           0      -12.546477    3.768014    1.497138
    113          1           0      -13.531510   -3.664619    1.121158
    114          1           0      -14.646039   -2.653462    2.061765
    115          1           0      -15.269212   -4.010741    1.103291
    116          1           0      -13.531776   -3.533582   -1.448524
    117          1           0      -15.269269   -3.881029   -1.464205
    118          1           0      -14.647921   -2.433325   -2.280979
    119          1           0       -5.872962    2.829805    0.161945
    120          1           0      -20.205249   -2.596745   -0.110867
    121         16           0       -6.315348   -0.788209   -0.021966
    122          6           0       -6.242504    1.810922    0.110131
    123          6           0       -5.431879    0.722490    0.054613
    124          1           0      -21.728443   -0.469164   -0.003446
 ---------------------------------------------------------------------
 Rotational constants (GHZ):           0.1416571           0.0030730           0.0030181
 Leave Link  202 at Sat Nov 11 22:40:29 2023, MaxMem=  1207959552 cpu:               0.0 elap:               0.0
 (Enter /opt/apps/chemistry/Gaussian/g16/l301.exe)
 Standard basis: 3-21G* (6D, 7F)
 Ernie: Thresh=  0.10000D-02 Tol=  0.10000D-05 Strict=F.
 There are   854 symmetry adapted cartesian basis functions of A   symmetry.
 There are   854 symmetry adapted basis functions of A   symmetry.
   854 basis functions,  1416 primitive gaussians,   854 cartesian basis functions
   289 alpha electrons      289 beta electrons
       nuclear repulsion energy     11144.5641487496 Hartrees.
 IExCor=  402 DFT=T Ex+Corr=B3LYP ExCW=0 ScaHFX=  0.200000
 ScaDFX=  0.800000  0.720000  1.000000  0.810000 ScalE2=  1.000000  1.000000
 IRadAn=      5 IRanWt=     -1 IRanGd=            0 ICorTp=0 IEmpDi=  4
 NAtoms=  124 NActive=  124 NUniq=  124 SFac= 1.00D+00 NAtFMM=   60 NAOKFM=T Big=T
 Integral buffers will be    131072 words long.
 Raffenetti 2 integral format.
 Two-electron integral symmetry is turned on.
 Leave Link  301 at Sat Nov 11 22:40:29 2023, MaxMem=  1207959552 cpu:               0.5 elap:               0.1
 (Enter /opt/apps/chemistry/Gaussian/g16/l302.exe)
 NPDir=0 NMtPBC=     1 NCelOv=     1 NCel=       1 NClECP=     1 NCelD=      1
         NCelK=      1 NCelE2=     1 NClLst=     1 CellRange=     0.0.
 One-electron integrals computed using PRISM.
 One-electron integral symmetry used in STVInt
 NBasis=   854 RedAO= T EigKep=  1.05D-03  NBF=   854
 NBsUse=   854 1.00D-06 EigRej= -1.00D+00 NBFU=   854
 Precomputing XC quadrature grid using
 IXCGrd= 4 IRadAn=           5 IRanWt=          -1 IRanGd=           0 AccXCQ= 0.00D+00.
 Generated NRdTot=       0 NPtTot=           0 NUsed=           0 NTot=          32
 NSgBfM=   492   492   492   492   492 MxSgAt=   124 MxSgA2=   105.
 Leave Link  302 at Sat Nov 11 22:40:31 2023, MaxMem=  1207959552 cpu:              19.5 elap:               2.0
 (Enter /opt/apps/chemistry/Gaussian/g16/l303.exe)
 DipDrv:  MaxL=1.
 Leave Link  303 at Sat Nov 11 22:40:31 2023, MaxMem=  1207959552 cpu:               1.4 elap:               0.1
 (Enter /opt/apps/chemistry/Gaussian/g16/l401.exe)
 ExpMin= 1.42D-01 ExpMax= 1.21D+03 ExpMxC= 1.21D+03 IAcc=3 IRadAn=         5 AccDes= 0.00D+00
 Harris functional with IExCor=  402 and IRadAn=       5 diagonalized for initial guess.
 HarFok:  IExCor=  402 AccDes= 0.00D+00 IRadAn=         5 IDoV= 1 UseB2=F ITyADJ=14
 ICtDFT=  3500011 ScaDFX=  1.000000  1.000000  1.000000  1.000000
 FoFCou: FMM=F IPFlag=           0 FMFlag=      100000 FMFlg1=        2001
         NFxFlg=           0 DoJE=T BraDBF=F KetDBF=T FulRan=T
         wScrn=  0.000000 ICntrl=       500 IOpCl=  0 I1Cent=   200000004 NGrid=           0
         NMat0=    1 NMatS0=      1 NMatT0=    0 NMatD0=    1 NMtDS0=    0 NMtDT0=    0
 Petite list used in FoFCou.
 Harris En= -5199.81702836608    
 JPrj=0 DoOrth=F DoCkMO=F.
 Leave Link  401 at Sat Nov 11 22:40:37 2023, MaxMem=  1207959552 cpu:              55.4 elap:               5.6
 (Enter /opt/apps/chemistry/Gaussian/g16/l502.exe)
 Integral symmetry usage will be decided dynamically.
 Closed shell SCF:
 Using DIIS extrapolation, IDIIS=  1040.
 NGot=  1207959552 LenX=  1206482048 LenY=  1205751878
 Requested convergence on RMS density matrix=1.00D-08 within 128 cycles.
 Requested convergence on MAX density matrix=1.00D-06.
 Requested convergence on             energy=1.00D-06.
 No special actions if energy rises.
 Fock matrices will be formed incrementally for  20 cycles.
 Integral accuracy reduced to 1.0D-05 until final iterations.

 Cycle   1  Pass 0  IDiag  1:
 FoFJK:  IHMeth= 1 ICntrl=       0 DoSepK=F KAlg= 0 I1Cent=           0 FoldK=F
 IRaf= 360000000 NMat=       1 IRICut=       1 DoRegI=T DoRafI=F ISym2E= 0 IDoP0=0 IntGTp=1.
 FoFCou: FMM=T IPFlag=           0 FMFlag=      100000 FMFlg1=        2001
         NFxFlg=           0 DoJE=F BraDBF=F KetDBF=F FulRan=T
         wScrn=  0.000000 ICntrl=         0 IOpCl=  0 I1Cent=           0 NGrid=           0
         NMat0=    1 NMatS0=      1 NMatT0=    0 NMatD0=    1 NMtDS0=    0 NMtDT0=    0
 Symmetry not used in FoFCou.
 FMM levels:  10  Number of levels for PrismC:   9
 E= -5198.75248011932    
 DIIS: error= 4.21D-02 at cycle   1 NSaved=   1.
 NSaved= 1 IEnMin= 1 EnMin= -5198.75248011932     IErMin= 1 ErrMin= 4.21D-02
 ErrMax= 4.21D-02  0.00D+00 EMaxC= 1.00D-01 BMatC= 1.56D+00 BMatP= 1.56D+00
 IDIUse=3 WtCom= 5.79D-01 WtEn= 4.21D-01
 Coeff-Com:  0.100D+01
 Coeff-En:   0.100D+01
 Coeff:      0.100D+01
 Gap=     0.174 Goal=   None    Shift=    0.000
 GapD=    0.174 DampG=1.000 DampE=0.500 DampFc=0.5000 IDamp=-1.
 Damping current iteration by 5.00D-01
 RMSDP=5.39D-03 MaxDP=6.89D-01              OVMax= 9.61D-01

 Cycle   2  Pass 0  IDiag  1:
 RMSU=  2.67D-03    CP:  9.80D-01
 E= -5198.49636394953     Delta-E=        0.256116169792 Rises=F Damp=T
 DIIS: error= 2.70D-02 at cycle   2 NSaved=   2.
 NSaved= 2 IEnMin= 1 EnMin= -5198.75248011932     IErMin= 2 ErrMin= 2.70D-02
 ErrMax= 2.70D-02  0.00D+00 EMaxC= 1.00D-01 BMatC= 3.36D-01 BMatP= 1.56D+00
 IDIUse=3 WtCom= 7.30D-01 WtEn= 2.70D-01
 Coeff-Com:  0.239D+00 0.761D+00
 Coeff-En:   0.558D+00 0.442D+00
 Coeff:      0.325D+00 0.675D+00
 Gap=    -0.184 Goal=   None    Shift=    0.000
 RMSDP=2.56D-03 MaxDP=3.30D-01 DE= 2.56D-01 OVMax= 8.09D-01

 Cycle   3  Pass 0  IDiag  1:
 RMSU=  1.87D-03    CP:  9.84D-01  3.45D-01
 E= -5199.86323917867     Delta-E=       -1.366875229147 Rises=F Damp=F
 DIIS: error= 2.59D-02 at cycle   3 NSaved=   3.
 NSaved= 3 IEnMin= 3 EnMin= -5199.86323917867     IErMin= 3 ErrMin= 2.59D-02
 ErrMax= 2.59D-02  0.00D+00 EMaxC= 1.00D-01 BMatC= 4.20D-01 BMatP= 3.36D-01
 IDIUse=2 WtCom= 0.00D+00 WtEn= 1.00D+00
 Coeff-En:   0.000D+00 0.711D-01 0.929D+00
 Coeff:      0.000D+00 0.711D-01 0.929D+00
 Gap=     0.496 Goal=   None    Shift=    0.000
 RMSDP=3.96D-03 MaxDP=5.32D-01 DE=-1.37D+00 OVMax= 9.71D-01

 Cycle   4  Pass 0  IDiag  1:
 RMSU=  2.57D-03    CP:  9.77D-01  9.91D-01 -3.18D-01
 E= -5195.44379370242     Delta-E=        4.419445476251 Rises=F Damp=F
 DIIS: error= 7.91D-02 at cycle   4 NSaved=   4.
 NSaved= 4 IEnMin= 3 EnMin= -5199.86323917867     IErMin= 3 ErrMin= 2.59D-02
 ErrMax= 7.91D-02  0.00D+00 EMaxC= 1.00D-01 BMatC= 2.72D+00 BMatP= 3.36D-01
 IDIUse=2 WtCom= 0.00D+00 WtEn= 1.00D+00
 Coeff-En:   0.000D+00 0.000D+00 0.845D+00 0.155D+00
 Coeff:      0.000D+00 0.000D+00 0.845D+00 0.155D+00
 Gap=     0.016 Goal=   None    Shift=    0.000
 RMSDP=3.11D-03 MaxDP=5.13D-01 DE= 4.42D+00 OVMax= 9.74D-01

 Cycle   5  Pass 0  IDiag  1:
 RMSU=  1.73D-03    CP:  9.80D-01  4.94D-01  2.35D-01  2.39D-01
 E= -5199.09817414812     Delta-E=       -3.654380445694 Rises=F Damp=F
 DIIS: error= 3.49D-02 at cycle   5 NSaved=   5.
 NSaved= 5 IEnMin= 3 EnMin= -5199.86323917867     IErMin= 3 ErrMin= 2.59D-02
 ErrMax= 3.49D-02  0.00D+00 EMaxC= 1.00D-01 BMatC= 5.93D-01 BMatP= 3.36D-01
 IDIUse=2 WtCom= 0.00D+00 WtEn= 1.00D+00
 EnCoef did     3 forward-backward iterations
 Coeff-En:   0.000D+00 0.000D+00 0.691D+00 0.732D-01 0.236D+00
 Coeff:      0.000D+00 0.000D+00 0.691D+00 0.732D-01 0.236D+00
 Gap=    -0.166 Goal=   None    Shift=    0.000
 RMSDP=1.98D-03 MaxDP=1.48D-01 DE=-3.65D+00 OVMax= 7.76D-01

 Cycle   6  Pass 0  IDiag  1:
 RMSU=  1.48D-03    CP:  9.80D-01  4.86D-01  3.29D-01  3.13D-01  2.54D-01
 E= -5199.16213863889     Delta-E=       -0.063964490770 Rises=F Damp=F
 DIIS: error= 3.06D-02 at cycle   6 NSaved=   6.
 NSaved= 6 IEnMin= 3 EnMin= -5199.86323917867     IErMin= 3 ErrMin= 2.59D-02
 ErrMax= 3.06D-02  0.00D+00 EMaxC= 1.00D-01 BMatC= 4.46D-01 BMatP= 3.36D-01
 IDIUse=2 WtCom= 0.00D+00 WtEn= 1.00D+00
 EnCoef did     1 forward-backward iterations
 Coeff-En:   0.000D+00 0.000D+00 0.522D+00 0.000D+00 0.233D+00 0.245D+00
 Coeff:      0.000D+00 0.000D+00 0.522D+00 0.000D+00 0.233D+00 0.245D+00
 Gap=     0.020 Goal=   None    Shift=    0.000
 RMSDP=1.47D-03 MaxDP=1.52D-01 DE=-6.40D-02 OVMax= 4.16D-01

 Cycle   7  Pass 0  IDiag  1:
 RMSU=  7.18D-04    CP:  9.83D-01  4.10D-01  4.82D-01  1.23D-01  3.09D-01
                    CP:  2.37D-01
 E= -5200.40008848590     Delta-E=       -1.237949847011 Rises=F Damp=F
 DIIS: error= 5.12D-03 at cycle   7 NSaved=   7.
 NSaved= 7 IEnMin= 7 EnMin= -5200.40008848590     IErMin= 7 ErrMin= 5.12D-03
 ErrMax= 5.12D-03  0.00D+00 EMaxC= 1.00D-01 BMatC= 2.64D-02 BMatP= 3.36D-01
 IDIUse=3 WtCom= 9.49D-01 WtEn= 5.12D-02
 Coeff-Com:  0.117D-01 0.719D-01 0.239D+00-0.189D-01 0.108D+00 0.148D+00
 Coeff-Com:  0.440D+00
 Coeff-En:   0.000D+00 0.000D+00 0.000D+00 0.000D+00 0.000D+00 0.000D+00
 Coeff-En:   0.100D+01
 Coeff:      0.111D-01 0.682D-01 0.227D+00-0.180D-01 0.103D+00 0.140D+00
 Coeff:      0.469D+00
 Gap=     0.088 Goal=   None    Shift=    0.000
 RMSDP=3.84D-04 MaxDP=4.61D-02 DE=-1.24D+00 OVMax= 8.11D-02

 Cycle   8  Pass 0  IDiag  1:
 RMSU=  3.08D-04    CP:  9.82D-01  4.02D-01  5.54D-01  1.02D-01  2.66D-01
                    CP:  2.08D-01  7.85D-01
 E= -5200.42043883080     Delta-E=       -0.020350344907 Rises=F Damp=F
 DIIS: error= 4.60D-03 at cycle   8 NSaved=   8.
 NSaved= 8 IEnMin= 8 EnMin= -5200.42043883080     IErMin= 8 ErrMin= 4.60D-03
 ErrMax= 4.60D-03  0.00D+00 EMaxC= 1.00D-01 BMatC= 8.88D-03 BMatP= 2.64D-02
 IDIUse=3 WtCom= 9.54D-01 WtEn= 4.60D-02
 Coeff-Com: -0.142D-01 0.291D-01 0.446D-02-0.103D-01 0.250D-01 0.480D-01
 Coeff-Com:  0.273D+00 0.645D+00
 Coeff-En:   0.000D+00 0.000D+00 0.000D+00 0.000D+00 0.000D+00 0.000D+00
 Coeff-En:   0.251D+00 0.749D+00
 Coeff:     -0.136D-01 0.277D-01 0.425D-02-0.987D-02 0.239D-01 0.458D-01
 Coeff:      0.272D+00 0.650D+00
 Gap=     0.084 Goal=   None    Shift=    0.000
 RMSDP=1.84D-04 MaxDP=1.63D-02 DE=-2.04D-02 OVMax= 3.27D-02

 Cycle   9  Pass 0  IDiag  1:
 RMSU=  1.17D-04    CP:  9.82D-01  4.17D-01  5.21D-01  1.14D-01  3.01D-01
                    CP:  2.30D-01  8.71D-01  7.68D-01
