 Entering Gaussian System, Link 0=g16
 Input=oligomer-5.com
 Output=oligomer-5.log
 Initial command:
 /opt/apps/chemistry/Gaussian/g16/l1.exe "/tmp/Gau-72404.inp" -scrdir="/tmp/"
 Entering Link 1 = /opt/apps/chemistry/Gaussian/g16/l1.exe PID=     72407.
  
 Copyright (c) 1988,1990,1992,1993,1995,1998,2003,2009,2016,
            Gaussian, Inc.  All Rights Reserved.
  
 This is part of the Gaussian(R) 16 program.  It is based on
 the Gaussian(R) 09 system (copyright 2009, Gaussian, Inc.),
 the Gaussian(R) 03 system (copyright 2003, Gaussian, Inc.),
 the Gaussian(R) 98 system (copyright 1998, Gaussian, Inc.),
 the Gaussian(R) 94 system (copyright 1995, Gaussian, Inc.),
 the Gaussian 92(TM) system (copyright 1992, Gaussian, Inc.),
 the Gaussian 90(TM) system (copyright 1990, Gaussian, Inc.),
 the Gaussian 88(TM) system (copyright 1988, Gaussian, Inc.),
 the Gaussian 86(TM) system (copyright 1986, Carnegie Mellon
 University), and the Gaussian 82(TM) system (copyright 1983,
 Carnegie Mellon University). Gaussian is a federally registered
 trademark of Gaussian, Inc.
  
 This software contains proprietary and confidential information,
 including trade secrets, belonging to Gaussian, Inc.
  
 This software is provided under written license and may be
 used, copied, transmitted, or stored only in accord with that
 written license.
  
 The following legend is applicable only to US Government
 contracts under FAR:
  
                    RESTRICTED RIGHTS LEGEND
  
 Use, reproduction and disclosure by the US Government is
 subject to restrictions as set forth in subparagraphs (a)
 and (c) of the Commercial Computer Software - Restricted
 Rights clause in FAR 52.227-19.
  
 Gaussian, Inc.
 340 Quinnipiac St., Bldg. 40, Wallingford CT 06492
  
  
 ---------------------------------------------------------------
 Warning -- This program may not be used in any manner that
 competes with the business of Gaussian, Inc. or will provide
 assistance to any competitor of Gaussian, Inc.  The licensee
 of this program is prohibited from giving any competitor of
 Gaussian, Inc. access to this program.  By using this program,
 the user acknowledges that Gaussian, Inc. is engaged in the
 business of creating and licensing software in the field of
 computational chemistry and represents and warrants to the
 licensee that it is not a competitor of Gaussian, Inc. and that
 it will not use this program in any manner prohibited above.
 ---------------------------------------------------------------
  

 Cite this work as:
 Gaussian 16, Revision A.03,
 M. J. Frisch, G. W. Trucks, H. B. Schlegel, G. E. Scuseria, 
 M. A. Robb, J. R. Cheeseman, G. Scalmani, V. Barone, 
 G. A. Petersson, H. Nakatsuji, X. Li, M. Caricato, A. V. Marenich, 
 J. Bloino, B. G. Janesko, R. Gomperts, B. Mennucci, H. P. Hratchian, 
 J. V. Ortiz, A. F. Izmaylov, J. L. Sonnenberg, D. Williams-Young, 
 F. Ding, F. Lipparini, F. Egidi, J. Goings, B. Peng, A. Petrone, 
 T. Henderson, D. Ranasinghe, V. G. Zakrzewski, J. Gao, N. Rega, 
 G. Zheng, W. Liang, M. Hada, M. Ehara, K. Toyota, R. Fukuda, 
 J. Hasegawa, M. Ishida, T. Nakajima, Y. Honda, O. Kitao, H. Nakai, 
 T. Vreven, K. Throssell, J. A. Montgomery, Jr., J. E. Peralta, 
 F. Ogliaro, M. J. Bearpark, J. J. Heyd, E. N. Brothers, K. N. Kudin, 
 V. N. Staroverov, T. A. Keith, R. Kobayashi, J. Normand, 
 K. Raghavachari, A. P. Rendell, J. C. Burant, S. S. Iyengar, 
 J. Tomasi, M. Cossi, J. M. Millam, M. Klene, C. Adamo, R. Cammi, 
 J. W. Ochterski, R. L. Martin, K. Morokuma, O. Farkas, 
 J. B. Foresman, and D. J. Fox, Gaussian, Inc., Wallingford CT, 2016.
 
 ******************************************
 Gaussian 16:  ES64L-G16RevA.03 25-Dec-2016
                11-Nov-2023 
 ******************************************
 %nproc=10
 Will use up to   10 processors via shared memory.
 %mem=9GB
 %chk=TIFBT5.chk
 -------------------
 #p opt b3lyp/3-21g*
 -------------------
 1/18=20,19=15,26=3,38=1/1,3;
 2/9=110,12=2,17=6,18=5,40=1/2;
 3/5=5,7=1,11=2,25=1,30=1,71=1,74=-5/1,2,3;
 4//1;
 5/5=2,38=5/2;
 6/7=2,8=2,9=2,10=2,28=1/1;
 7//1,2,3,16;
 1/18=20,19=15,26=3/3(2);
 2/9=110/2;
 99//99;
 2/9=110/2;
 3/5=5,7=1,11=2,25=1,30=1,71=1,74=-5/1,2,3;
 4/5=5,16=3,69=1/1;
 5/5=2,38=5/2;
 7//1,2,3,16;
 1/18=20,19=15,26=3/3(-5);
 2/9=110/2;
 6/7=2,8=2,9=2,10=2,19=2,28=1/1;
 99/9=1/99;
 Leave Link    1 at Sat Nov 11 22:41:13 2023, MaxMem=  1207959552 cpu:               0.4 elap:               0.0
 (Enter /opt/apps/chemistry/Gaussian/g16/l101.exe)
 ----------------------------------------------
 Gaussian optimization calculation on oligomer5
 ----------------------------------------------
 Symbolic Z-matrix:
 Charge =  0 Multiplicity = 1
 C                     0.        0.        0. 
 C                    -0.78035   1.17033   0.23065 
 C                    -0.65683  -1.19203  -0.16309 
 N                    -0.31151   2.4121    0.41121 
 N                    -2.8323    2.25417   0.51004 
 S                    -1.63011   3.37048   0.63372 
 H                    -2.551    -2.25411  -0.24363 
 H                    -0.08671  -2.09973  -0.34025 
 C                    -2.08637  -1.28159  -0.10705 
 C                    -2.22789   1.07964   0.2874 
 C                    -2.8719   -0.17992   0.11259 
 H                    -3.95422  -0.23937   0.1564 
 C                     16.69869  -0.58905   0.2137 
 C                     16.03658   0.54017   0.53904 
 S                     15.6249  -1.93532  -0.17009 
 C                     9.91436   0.74861   0.61212 
 C                     10.44626  -0.50026   0.2526 
 C                     9.60484  -1.58905  -0.05824 
 C                     8.22997  -1.40982  -0.00413 
 C                     7.6981   -0.161     0.35554 
 C                     8.53952   0.92777   0.66643 
 C                     7.11206  -2.42932  -0.29491 
 C                     5.86758  -1.59346  -0.05223 
 C                     6.23483  -0.26941   0.32726 
 C                     11.03219   1.76832   0.90223 
 C                     12.2767   0.93243   0.65984 
 C                     11.90952  -0.39177   0.28082 
 C                     4.5387   -1.97864  -0.16022 
 C                     3.54037  -1.0348    0.11284 
 C                     3.92904   0.28342   0.49084 
 C                     5.27165   0.68126   0.60246 
 C                     13.60553   1.3178    0.7674 
 C                     14.60393   0.37397   0.49456 
 C                     14.21538  -0.94454   0.11753 
 C                     12.87282  -1.34256   0.0063 
 C                     7.23992  -3.63045   0.67454 
 C                     7.10117  -2.92702  -1.75201 
 C                     11.04335   2.26558   2.35955 
 C                     10.90405   2.96973  -0.06678 
 H                     8.12463   1.88734   0.94304 
 H                     10.01974  -2.54876  -0.33435 
 H                     13.89413   2.32966   1.05694 
 H                     12.59584  -2.35601  -0.28347 
 H                     4.25002  -2.9903   -0.45035 
 H                     5.54873   1.6944    0.89322 
 H                     8.16866  -4.18414   0.53629 
 H                     6.39938  -4.32392   0.49818 
 H                     7.24839  -3.29943   1.71389 
 H                     7.01049  -2.09052  -2.45616 
 H                     6.25814  -3.60887  -1.96717 
 H                     8.02732  -3.46921  -1.93138 
 H                     9.97563   3.52363   0.0724 
 H                     10.89471   2.63899  -1.10624 
 H                     11.7449   3.66286   0.10933 
 H                     10.11687   2.80696   2.53955 
 H                     11.88596   2.94799   2.57466 
 H                     11.13499   1.42893   3.06348 
 H                     1.60792  -2.13344  -0.19937 
 H                     16.53625   1.47309   0.80545 
 S                     2.51955   1.27438   0.77813 
 C                     2.10768  -1.20073   0.06772 
 C                     1.44566  -0.07164   0.39362 
 C                     21.06204  -0.23937   0.1564 
 C                     20.27474   0.8977    0.50141 
 C                     20.41073  -1.40047  -0.17009 
 N                     20.73759   2.10682   0.84522 
 N                     18.21492   1.94805   0.84375 
 S                     19.41257   3.03659   1.13942 
 H                     18.52007  -2.43765  -0.43852 
 H                     20.98621  -2.28245  -0.43708 
 C                     18.98012  -1.49051  -0.17093 
 C                     18.82612   0.80653   0.50057 
 C                     18.18799  -0.42025   0.15472 
 C                     37.76635   1.08794   0.58224 
 C                     37.12718  -0.07237   0.88225 
 S                     36.6695   2.38526   0.1551 
 C                     31.02298  -0.56359   0.71386 
 C                     31.52998   0.71043   0.37444 
 C                     30.66988   1.76087   0.02961 
 C                     29.3016   1.51808   0.02959 
 C                     28.7946   0.24413   0.36916 
 C                     29.65469  -0.80631   0.71405 
 C                     28.16699   2.48645  -0.30604 
 C                     26.9412   1.59274  -0.11187 
 C                     27.33267   0.28503   0.28306 
 C                     32.15757  -1.53215   1.04883 
 C                     33.38337  -0.63841   0.85496 
 C                     32.99191   0.66945   0.46049 
 C                     25.6081   1.91674  -0.27259 
 C                     24.62995   0.92637  -0.03825 
 C                     25.04266  -0.37452   0.35604 
 C                     26.38969  -0.71056   0.52093 
 C                     34.71646  -0.96261   1.01523 
 C                     35.69466   0.02775   0.78112 
 C                     35.28197   1.32894   0.3878 
 C                     33.93494   1.66515   0.2233 
 C                     28.14741   3.68705   0.66657 
 C                     28.27106   2.99086  -1.76291 
 C                     32.05373  -2.03612   2.50592 
 C                     32.17684  -2.73305   0.07665 
 H                     29.25892  -1.78548   0.97497 
 H                     31.06562   2.74018  -0.23082 
 H                     35.02359  -1.96161   1.31689 
 H                     33.63935   2.66628  -0.07813 
 H                     25.30096   2.91555  -0.57484 
 H                     26.68528  -1.71138   0.82336 
 H                     29.06139   4.28376   0.56455 
 H                     27.29369   4.34193   0.45652 
 H                     28.07278   3.35125   1.70575 
 H                     28.2858   2.15481  -2.4693 
 H                     27.41906   3.63422  -2.01181 
 H                     29.18686   3.57617  -1.9061 
 H                     31.26312  -3.32996   0.1796 
 H                     32.25063  -2.39757  -0.96268 
 H                     33.03088  -3.38757   0.28645 
 H                     31.1375  -2.62064   2.64973 
 H                     32.90535  -2.68005   2.75476 
 H                     32.03995  -1.19986   3.21212 
 H                     22.68122   1.9363   -0.42751 
 H                     37.64341  -0.98265   1.16906 
 S                     23.6552  -1.43102   0.58841 
 C                     23.19746   1.02623  -0.14004 
 C                     22.55832  -0.13395   0.16055 
 H                     38.83211   1.27586   0.58224 
 
 ITRead=  0  0  0  0  0  0  0  0  0  0  0  0  0  0  0  0  0  0  0  0
 ITRead=  0  0  0  0  0  0  0  0  0  0  0  0  0  0  0  0  0  0  0  0
 ITRead=  0  0  0  0  0  0  0  0  0  0  0  0  0  0  0  0  0  0  0  0
 ITRead=  0  0  0  0  0  0  0  0  0  0  0  0  0  0  0  0  0  0  0  0
 ITRead=  0  0  0  0  0  0  0  0  0  0  0  0  0  0  0  0  0  0  0  0
 ITRead=  0  0  0  0  0  0  0  0  0  0  0  0  0  0  0  0  0  0  0  0
 ITRead=  0  0  0  0
 MicOpt= -1 -1 -1 -1 -1 -1 -1 -1 -1 -1 -1 -1 -1 -1 -1 -1 -1 -1 -1 -1
 MicOpt= -1 -1 -1 -1 -1 -1 -1 -1 -1 -1 -1 -1 -1 -1 -1 -1 -1 -1 -1 -1
 MicOpt= -1 -1 -1 -1 -1 -1 -1 -1 -1 -1 -1 -1 -1 -1 -1 -1 -1 -1 -1 -1
 MicOpt= -1 -1 -1 -1 -1 -1 -1 -1 -1 -1 -1 -1 -1 -1 -1 -1 -1 -1 -1 -1
 MicOpt= -1 -1 -1 -1 -1 -1 -1 -1 -1 -1 -1 -1 -1 -1 -1 -1 -1 -1 -1 -1
 MicOpt= -1 -1 -1 -1 -1 -1 -1 -1 -1 -1 -1 -1 -1 -1 -1 -1 -1 -1 -1 -1
 MicOpt= -1 -1 -1 -1
 NAtoms=    124 NQM=      124 NQMF=       0 NMMI=      0 NMMIF=      0
                NMic=       0 NMicF=      0.
                    Isotopes and Nuclear Properties:
 (Nuclear quadrupole moments (NQMom) in fm**2, nuclear magnetic moments (NMagM)
  in nuclear magnetons)

  Atom         1           2           3           4           5           6           7           8           9          10
 IAtWgt=          12          12          12          14          14          32           1           1          12          12
 AtmWgt=  12.0000000  12.0000000  12.0000000  14.0030740  14.0030740  31.9720718   1.0078250   1.0078250  12.0000000  12.0000000
 NucSpn=           0           0           0           2           2           0           1           1           0           0
 AtZEff=  -0.0000000  -0.0000000  -0.0000000  -0.0000000  -0.0000000  -0.0000000  -0.0000000  -0.0000000  -0.0000000  -0.0000000
 NQMom=    0.0000000   0.0000000   0.0000000   2.0440000   2.0440000   0.0000000   0.0000000   0.0000000   0.0000000   0.0000000
 NMagM=    0.0000000   0.0000000   0.0000000   0.4037610   0.4037610   0.0000000   2.7928460   2.7928460   0.0000000   0.0000000
 AtZNuc=   6.0000000   6.0000000   6.0000000   7.0000000   7.0000000  16.0000000   1.0000000   1.0000000   6.0000000   6.0000000

  Atom        11          12          13          14          15          16          17          18          19          20
 IAtWgt=          12           1          12          12          32          12          12          12          12          12
 AtmWgt=  12.0000000   1.0078250  12.0000000  12.0000000  31.9720718  12.0000000  12.0000000  12.0000000  12.0000000  12.0000000
 NucSpn=           0           1           0           0           0           0           0           0           0           0
 AtZEff=  -0.0000000  -0.0000000  -0.0000000  -0.0000000  -0.0000000  -0.0000000  -0.0000000  -0.0000000  -0.0000000  -0.0000000
 NQMom=    0.0000000   0.0000000   0.0000000   0.0000000   0.0000000   0.0000000   0.0000000   0.0000000   0.0000000   0.0000000
 NMagM=    0.0000000   2.7928460   0.0000000   0.0000000   0.0000000   0.0000000   0.0000000   0.0000000   0.0000000   0.0000000
 AtZNuc=   6.0000000   1.0000000   6.0000000   6.0000000  16.0000000   6.0000000   6.0000000   6.0000000   6.0000000   6.0000000

  Atom        21          22          23          24          25          26          27          28          29          30
 IAtWgt=          12          12          12          12          12          12          12          12          12          12
 AtmWgt=  12.0000000  12.0000000  12.0000000  12.0000000  12.0000000  12.0000000  12.0000000  12.0000000  12.0000000  12.0000000
 NucSpn=           0           0           0           0           0           0           0           0           0           0
 AtZEff=  -0.0000000  -0.0000000  -0.0000000  -0.0000000  -0.0000000  -0.0000000  -0.0000000  -0.0000000  -0.0000000  -0.0000000
 NQMom=    0.0000000   0.0000000   0.0000000   0.0000000   0.0000000   0.0000000   0.0000000   0.0000000   0.0000000   0.0000000
 NMagM=    0.0000000   0.0000000   0.0000000   0.0000000   0.0000000   0.0000000   0.0000000   0.0000000   0.0000000   0.0000000
 AtZNuc=   6.0000000   6.0000000   6.0000000   6.0000000   6.0000000   6.0000000   6.0000000   6.0000000   6.0000000   6.0000000

  Atom        31          32          33          34          35          36          37          38          39          40
 IAtWgt=          12          12          12          12          12          12          12          12          12           1
 AtmWgt=  12.0000000  12.0000000  12.0000000  12.0000000  12.0000000  12.0000000  12.0000000  12.0000000  12.0000000   1.0078250
 NucSpn=           0           0           0           0           0           0           0           0           0           1
 AtZEff=  -0.0000000  -0.0000000  -0.0000000  -0.0000000  -0.0000000  -0.0000000  -0.0000000  -0.0000000  -0.0000000  -0.0000000
 NQMom=    0.0000000   0.0000000   0.0000000   0.0000000   0.0000000   0.0000000   0.0000000   0.0000000   0.0000000   0.0000000
 NMagM=    0.0000000   0.0000000   0.0000000   0.0000000   0.0000000   0.0000000   0.0000000   0.0000000   0.0000000   2.7928460
 AtZNuc=   6.0000000   6.0000000   6.0000000   6.0000000   6.0000000   6.0000000   6.0000000   6.0000000   6.0000000   1.0000000

  Atom        41          42          43          44          45          46          47          48          49          50
 IAtWgt=           1           1           1           1           1           1           1           1           1           1
 AtmWgt=   1.0078250   1.0078250   1.0078250   1.0078250   1.0078250   1.0078250   1.0078250   1.0078250   1.0078250   1.0078250
 NucSpn=           1           1           1           1           1           1           1           1           1           1
 AtZEff=  -0.0000000  -0.0000000  -0.0000000  -0.0000000  -0.0000000  -0.0000000  -0.0000000  -0.0000000  -0.0000000  -0.0000000
 NQMom=    0.0000000   0.0000000   0.0000000   0.0000000   0.0000000   0.0000000   0.0000000   0.0000000   0.0000000   0.0000000
 NMagM=    2.7928460   2.7928460   2.7928460   2.7928460   2.7928460   2.7928460   2.7928460   2.7928460   2.7928460   2.7928460
 AtZNuc=   1.0000000   1.0000000   1.0000000   1.0000000   1.0000000   1.0000000   1.0000000   1.0000000   1.0000000   1.0000000

  Atom        51          52          53          54          55          56          57          58          59          60
 IAtWgt=           1           1           1           1           1           1           1           1           1          32
 AtmWgt=   1.0078250   1.0078250   1.0078250   1.0078250   1.0078250   1.0078250   1.0078250   1.0078250   1.0078250  31.9720718
 NucSpn=           1           1           1           1           1           1           1           1           1           0
 AtZEff=  -0.0000000  -0.0000000  -0.0000000  -0.0000000  -0.0000000  -0.0000000  -0.0000000  -0.0000000  -0.0000000  -0.0000000
 NQMom=    0.0000000   0.0000000   0.0000000   0.0000000   0.0000000   0.0000000   0.0000000   0.0000000   0.0000000   0.0000000
 NMagM=    2.7928460   2.7928460   2.7928460   2.7928460   2.7928460   2.7928460   2.7928460   2.7928460   2.7928460   0.0000000
 AtZNuc=   1.0000000   1.0000000   1.0000000   1.0000000   1.0000000   1.0000000   1.0000000   1.0000000   1.0000000  16.0000000

  Atom        61          62          63          64          65          66          67          68          69          70
 IAtWgt=          12          12          12          12          12          14          14          32           1           1
 AtmWgt=  12.0000000  12.0000000  12.0000000  12.0000000  12.0000000  14.0030740  14.0030740  31.9720718   1.0078250   1.0078250
 NucSpn=           0           0           0           0           0           2           2           0           1           1
 AtZEff=  -0.0000000  -0.0000000  -0.0000000  -0.0000000  -0.0000000  -0.0000000  -0.0000000  -0.0000000  -0.0000000  -0.0000000
 NQMom=    0.0000000   0.0000000   0.0000000   0.0000000   0.0000000   2.0440000   2.0440000   0.0000000   0.0000000   0.0000000
 NMagM=    0.0000000   0.0000000   0.0000000   0.0000000   0.0000000   0.4037610   0.4037610   0.0000000   2.7928460   2.7928460
 AtZNuc=   6.0000000   6.0000000   6.0000000   6.0000000   6.0000000   7.0000000   7.0000000  16.0000000   1.0000000   1.0000000

  Atom        71          72          73          74          75          76          77          78          79          80
 IAtWgt=          12          12          12          12          12          32          12          12          12          12
 AtmWgt=  12.0000000  12.0000000  12.0000000  12.0000000  12.0000000  31.9720718  12.0000000  12.0000000  12.0000000  12.0000000
 NucSpn=           0           0           0           0           0           0           0           0           0           0
 AtZEff=  -0.0000000  -0.0000000  -0.0000000  -0.0000000  -0.0000000  -0.0000000  -0.0000000  -0.0000000  -0.0000000  -0.0000000
 NQMom=    0.0000000   0.0000000   0.0000000   0.0000000   0.0000000   0.0000000   0.0000000   0.0000000   0.0000000   0.0000000
 NMagM=    0.0000000   0.0000000   0.0000000   0.0000000   0.0000000   0.0000000   0.0000000   0.0000000   0.0000000   0.0000000
 AtZNuc=   6.0000000   6.0000000   6.0000000   6.0000000   6.0000000  16.0000000   6.0000000   6.0000000   6.0000000   6.0000000

  Atom        81          82          83          84          85          86          87          88          89          90
 IAtWgt=          12          12          12          12          12          12          12          12          12          12
 AtmWgt=  12.0000000  12.0000000  12.0000000  12.0000000  12.0000000  12.0000000  12.0000000  12.0000000  12.0000000  12.0000000
 NucSpn=           0           0           0           0           0           0           0           0           0           0
 AtZEff=  -0.0000000  -0.0000000  -0.0000000  -0.0000000  -0.0000000  -0.0000000  -0.0000000  -0.0000000  -0.0000000  -0.0000000
 NQMom=    0.0000000   0.0000000   0.0000000   0.0000000   0.0000000   0.0000000   0.0000000   0.0000000   0.0000000   0.0000000
 NMagM=    0.0000000   0.0000000   0.0000000   0.0000000   0.0000000   0.0000000   0.0000000   0.0000000   0.0000000   0.0000000
 AtZNuc=   6.0000000   6.0000000   6.0000000   6.0000000   6.0000000   6.0000000   6.0000000   6.0000000   6.0000000   6.0000000

  Atom        91          92          93          94          95          96          97          98          99         100
 IAtWgt=          12          12          12          12          12          12          12          12          12          12
 AtmWgt=  12.0000000  12.0000000  12.0000000  12.0000000  12.0000000  12.0000000  12.0000000  12.0000000  12.0000000  12.0000000
 NucSpn=           0           0           0           0           0           0           0           0           0           0
 AtZEff=  -0.0000000  -0.0000000  -0.0000000  -0.0000000  -0.0000000  -0.0000000  -0.0000000  -0.0000000  -0.0000000  -0.0000000
 NQMom=    0.0000000   0.0000000   0.0000000   0.0000000   0.0000000   0.0000000   0.0000000   0.0000000   0.0000000   0.0000000
 NMagM=    0.0000000   0.0000000   0.0000000   0.0000000   0.0000000   0.0000000   0.0000000   0.0000000   0.0000000   0.0000000
 AtZNuc=   6.0000000   6.0000000   6.0000000   6.0000000   6.0000000   6.0000000   6.0000000   6.0000000   6.0000000   6.0000000

  Atom       101         102         103         104         105         106         107         108         109         110
 IAtWgt=           1           1           1           1           1           1           1           1           1           1
 AtmWgt=   1.0078250   1.0078250   1.0078250   1.0078250   1.0078250   1.0078250   1.0078250   1.0078250   1.0078250   1.0078250
 NucSpn=           1           1           1           1           1           1           1           1           1           1
 AtZEff=  -0.0000000  -0.0000000  -0.0000000  -0.0000000  -0.0000000  -0.0000000  -0.0000000  -0.0000000  -0.0000000  -0.0000000
 NQMom=    0.0000000   0.0000000   0.0000000   0.0000000   0.0000000   0.0000000   0.0000000   0.0000000   0.0000000   0.0000000
 NMagM=    2.7928460   2.7928460   2.7928460   2.7928460   2.7928460   2.7928460   2.7928460   2.7928460   2.7928460   2.7928460
 AtZNuc=   1.0000000   1.0000000   1.0000000   1.0000000   1.0000000   1.0000000   1.0000000   1.0000000   1.0000000   1.0000000

  Atom       111         112         113         114         115         116         117         118         119         120
 IAtWgt=           1           1           1           1           1           1           1           1           1           1
 AtmWgt=   1.0078250   1.0078250   1.0078250   1.0078250   1.0078250   1.0078250   1.0078250   1.0078250   1.0078250   1.0078250
 NucSpn=           1           1           1           1           1           1           1           1           1           1
 AtZEff=  -0.0000000  -0.0000000  -0.0000000  -0.0000000  -0.0000000  -0.0000000  -0.0000000  -0.0000000  -0.0000000  -0.0000000
 NQMom=    0.0000000   0.0000000   0.0000000   0.0000000   0.0000000   0.0000000   0.0000000   0.0000000   0.0000000   0.0000000
 NMagM=    2.7928460   2.7928460   2.7928460   2.7928460   2.7928460   2.7928460   2.7928460   2.7928460   2.7928460   2.7928460
 AtZNuc=   1.0000000   1.0000000   1.0000000   1.0000000   1.0000000   1.0000000   1.0000000   1.0000000   1.0000000   1.0000000

  Atom       121         122         123         124
 IAtWgt=          32          12          12           1
 AtmWgt=  31.9720718  12.0000000  12.0000000   1.0078250
 NucSpn=           0           0           0           1
 AtZEff=  -0.0000000  -0.0000000  -0.0000000  -0.0000000
 NQMom=    0.0000000   0.0000000   0.0000000   0.0000000
 NMagM=    0.0000000   0.0000000   0.0000000   2.7928460
 AtZNuc=  16.0000000   6.0000000   6.0000000   1.0000000
 Leave Link  101 at Sat Nov 11 22:41:14 2023, MaxMem=  1207959552 cpu:               4.7 elap:               0.5
 (Enter /opt/apps/chemistry/Gaussian/g16/l103.exe)

 GradGradGradGradGradGradGradGradGradGradGradGradGradGradGradGradGradGrad
 Berny optimization.
 Initialization pass.
                           ----------------------------
                           !    Initial Parameters    !
                           ! (Angstroms and Degrees)  !
 --------------------------                            --------------------------
 ! Name  Definition              Value          Derivative Info.                !
 --------------------------------------------------------------------------------
 ! R1    R(1,2)                  1.4254         estimate D2E/DX2                !
 ! R2    R(1,3)                  1.3707         estimate D2E/DX2                !
 ! R3    R(1,62)                 1.5            estimate D2E/DX2                !
 ! R4    R(2,4)                  1.3396         estimate D2E/DX2                !
 ! R5    R(2,10)                 1.4515         estimate D2E/DX2                !
 ! R6    R(3,8)                  1.0864         estimate D2E/DX2                !
 ! R7    R(3,9)                  1.4334         estimate D2E/DX2                !
 ! R8    R(4,6)                  1.6452         estimate D2E/DX2                !
 ! R9    R(5,6)                  1.6452         estimate D2E/DX2                !
 ! R10   R(5,10)                 1.3395         estimate D2E/DX2                !
 ! R11   R(7,9)                  1.0864         estimate D2E/DX2                !
 ! R12   R(9,11)                 1.3708         estimate D2E/DX2                !
 ! R13   R(10,11)                1.4254         estimate D2E/DX2                !
 ! R14   R(11,12)                1.0848         estimate D2E/DX2                !
 ! R15   R(13,14)                1.3488         estimate D2E/DX2                !
 ! R16   R(13,15)                1.7643         estimate D2E/DX2                !
 ! R17   R(13,73)                1.5            estimate D2E/DX2                !
 ! R18   R(14,33)                1.4429         estimate D2E/DX2                !
 ! R19   R(14,59)                1.0913         estimate D2E/DX2                !
 ! R20   R(15,34)                1.7467         estimate D2E/DX2                !
 ! R21   R(16,17)                1.4042         estimate D2E/DX2                !
 ! R22   R(16,21)                1.3875         estimate D2E/DX2                !
 ! R23   R(16,25)                1.5406         estimate D2E/DX2                !
 ! R24   R(17,18)                1.4107         estimate D2E/DX2                !
 ! R25   R(17,27)                1.4675         estimate D2E/DX2                !
 ! R26   R(18,19)                1.3876         estimate D2E/DX2                !
 ! R27   R(18,41)                1.0814         estimate D2E/DX2                !
 ! R28   R(19,20)                1.4042         estimate D2E/DX2                !
 ! R29   R(19,22)                1.5407         estimate D2E/DX2                !
 ! R30   R(20,21)                1.4107         estimate D2E/DX2                !
 ! R31   R(20,24)                1.4676         estimate D2E/DX2                !
 ! R32   R(21,40)                1.0814         estimate D2E/DX2                !
 ! R33   R(22,23)                1.5186         estimate D2E/DX2                !
 ! R34   R(22,36)                1.5488         estimate D2E/DX2                !
 ! R35   R(22,37)                1.5398         estimate D2E/DX2                !
 ! R36   R(23,24)                1.4255         estimate D2E/DX2                !
 ! R37   R(23,28)                1.3878         estimate D2E/DX2                !
 ! R38   R(24,31)                1.381          estimate D2E/DX2                !
 ! R39   R(25,26)                1.5186         estimate D2E/DX2                !
 ! R40   R(25,38)                1.5399         estimate D2E/DX2                !
 ! R41   R(25,39)                1.5488         estimate D2E/DX2                !
 ! R42   R(26,27)                1.4255         estimate D2E/DX2                !
 ! R43   R(26,32)                1.3878         estimate D2E/DX2                !
 ! R44   R(27,35)                1.3811         estimate D2E/DX2                !
 ! R45   R(28,29)                1.4007         estimate D2E/DX2                !
 ! R46   R(28,44)                1.0913         estimate D2E/DX2                !
 ! R47   R(29,30)                1.4254         estimate D2E/DX2                !
 ! R48   R(29,61)                1.443          estimate D2E/DX2                !
 ! R49   R(30,31)                1.4047         estimate D2E/DX2                !
 ! R50   R(30,60)                1.7468         estimate D2E/DX2                !
 ! R51   R(31,45)                1.0898         estimate D2E/DX2                !
 ! R52   R(32,33)                1.4007         estimate D2E/DX2                !
 ! R53   R(32,42)                1.0913         estimate D2E/DX2                !
 ! R54   R(33,34)                1.4253         estimate D2E/DX2                !
 ! R55   R(34,35)                1.4047         estimate D2E/DX2                !
 ! R56   R(35,43)                1.0898         estimate D2E/DX2                !
 ! R57   R(36,46)                1.0901         estimate D2E/DX2                !
 ! R58   R(36,47)                1.1039         estimate D2E/DX2                !
 ! R59   R(36,48)                1.0908         estimate D2E/DX2                !
 ! R60   R(37,49)                1.0972         estimate D2E/DX2                !
 ! R61   R(37,50)                1.1054         estimate D2E/DX2                !
 ! R62   R(37,51)                1.0881         estimate D2E/DX2                !
 ! R63   R(38,55)                1.088          estimate D2E/DX2                !
 ! R64   R(38,56)                1.1054         estimate D2E/DX2                !
 ! R65   R(38,57)                1.0972         estimate D2E/DX2                !
 ! R66   R(39,52)                1.09           estimate D2E/DX2                !
 ! R67   R(39,53)                1.0909         estimate D2E/DX2                !
 ! R68   R(39,54)                1.1038         estimate D2E/DX2                !
 ! R69   R(58,61)                1.0913         estimate D2E/DX2                !
 ! R70   R(60,62)                1.7643         estimate D2E/DX2                !
 ! R71   R(61,62)                1.3488         estimate D2E/DX2                !
 ! R72   R(63,64)                1.4254         estimate D2E/DX2                !
 ! R73   R(63,65)                1.3707         estimate D2E/DX2                !
 ! R74   R(63,123)               1.5            estimate D2E/DX2                !
 ! R75   R(64,66)                1.3396         estimate D2E/DX2                !
 ! R76   R(64,72)                1.4515         estimate D2E/DX2                !
 ! R77   R(65,70)                1.0864         estimate D2E/DX2                !
 ! R78   R(65,71)                1.4334         estimate D2E/DX2                !
 ! R79   R(66,68)                1.6452         estimate D2E/DX2                !
 ! R80   R(67,68)                1.6452         estimate D2E/DX2                !
 ! R81   R(67,72)                1.3395         estimate D2E/DX2                !
 ! R82   R(69,71)                1.0864         estimate D2E/DX2                !
 ! R83   R(71,73)                1.3708         estimate D2E/DX2                !
 ! R84   R(72,73)                1.4254         estimate D2E/DX2                !
 ! R85   R(74,75)                1.3583         estimate D2E/DX2                !
 ! R86   R(74,76)                1.7517         estimate D2E/DX2                !
 ! R87   R(74,124)               1.0822         estimate D2E/DX2                !
 ! R88   R(75,94)                1.4396         estimate D2E/DX2                !
 ! R89   R(75,120)               1.0851         estimate D2E/DX2                !
 ! R90   R(76,95)                1.7593         estimate D2E/DX2                !
 ! R91   R(77,78)                1.4126         estimate D2E/DX2                !
 ! R92   R(77,82)                1.3896         estimate D2E/DX2                !
 ! R93   R(77,86)                1.5289         estimate D2E/DX2                !
 ! R94   R(78,79)                1.4008         estimate D2E/DX2                !
 ! R95   R(78,88)                1.465          estimate D2E/DX2                !
 ! R96   R(79,80)                1.3897         estimate D2E/DX2                !
 ! R97   R(79,102)               1.0879         estimate D2E/DX2                !
 ! R98   R(80,81)                1.4126         estimate D2E/DX2                !
 ! R99   R(80,83)                1.529          estimate D2E/DX2                !
 ! R100  R(81,82)                1.4008         estimate D2E/DX2                !
 ! R101  R(81,85)                1.465          estimate D2E/DX2                !
 ! R102  R(82,101)               1.0879         estimate D2E/DX2                !
 ! R103  R(83,84)                1.5294         estimate D2E/DX2                !
 ! R104  R(83,97)                1.5453         estimate D2E/DX2                !
 ! R105  R(83,98)                1.5452         estimate D2E/DX2                !
 ! R106  R(84,85)                1.421          estimate D2E/DX2                !
 ! R107  R(84,89)                1.3813         estimate D2E/DX2                !
 ! R108  R(85,92)                1.3918         estimate D2E/DX2                !
 ! R109  R(86,87)                1.5294         estimate D2E/DX2                !
 ! R110  R(86,99)                1.5453         estimate D2E/DX2                !
 ! R111  R(86,100)               1.5452         estimate D2E/DX2                !
 ! R112  R(87,88)                1.421          estimate D2E/DX2                !
 ! R113  R(87,93)                1.3813         estimate D2E/DX2                !
 ! R114  R(88,96)                1.3918         estimate D2E/DX2                !
 ! R115  R(89,90)                1.4116         estimate D2E/DX2                !
 ! R116  R(89,105)               1.0878         estimate D2E/DX2                !
 ! R117  R(90,91)                1.4206         estimate D2E/DX2                !
 ! R118  R(90,122)               1.4396         estimate D2E/DX2                !
 ! R119  R(91,92)                1.3981         estimate D2E/DX2                !
 ! R120  R(91,121)               1.7593         estimate D2E/DX2                !
 ! R121  R(92,106)               1.0865         estimate D2E/DX2                !
 ! R122  R(93,94)                1.4116         estimate D2E/DX2                !
 ! R123  R(93,103)               1.0878         estimate D2E/DX2                !
 ! R124  R(94,95)                1.4206         estimate D2E/DX2                !
 ! R125  R(95,96)                1.3981         estimate D2E/DX2                !
 ! R126  R(96,104)               1.0865         estimate D2E/DX2                !
 ! R127  R(97,107)               1.0963         estimate D2E/DX2                !
 ! R128  R(97,108)               1.0963         estimate D2E/DX2                !
 ! R129  R(97,109)               1.0946         estimate D2E/DX2                !
 ! R130  R(98,110)               1.0946         estimate D2E/DX2                !
 ! R131  R(98,111)               1.0962         estimate D2E/DX2                !
 ! R132  R(98,112)               1.0963         estimate D2E/DX2                !
 ! R133  R(99,116)               1.0963         estimate D2E/DX2                !
 ! R134  R(99,117)               1.0963         estimate D2E/DX2                !
 ! R135  R(99,118)               1.0946         estimate D2E/DX2                !
 ! R136  R(100,113)              1.0963         estimate D2E/DX2                !
 ! R137  R(100,114)              1.0946         estimate D2E/DX2                !
 ! R138  R(100,115)              1.0963         estimate D2E/DX2                !
 ! R139  R(119,122)              1.0851         estimate D2E/DX2                !
 ! R140  R(121,123)              1.7517         estimate D2E/DX2                !
 ! R141  R(122,123)              1.3583         estimate D2E/DX2                !
 ! A1    A(2,1,3)              118.094          estimate D2E/DX2                !
 ! A2    A(2,1,62)             121.6261         estimate D2E/DX2                !
 ! A3    A(3,1,62)             116.8402         estimate D2E/DX2                !
 ! A4    A(1,2,4)              126.2504         estimate D2E/DX2                !
 ! A5    A(1,2,10)             120.0658         estimate D2E/DX2                !
 ! A6    A(4,2,10)             113.6838         estimate D2E/DX2                !
 ! A7    A(1,3,8)              119.6369         estimate D2E/DX2                !
 ! A8    A(1,3,9)              121.8405         estimate D2E/DX2                !
 ! A9    A(8,3,9)              118.5227         estimate D2E/DX2                !
 ! A10   A(2,4,6)              106.1244         estimate D2E/DX2                !
 ! A11   A(6,5,10)             106.1244         estimate D2E/DX2                !
 ! A12   A(4,6,5)              100.3833         estimate D2E/DX2                !
 ! A13   A(3,9,7)              118.5234         estimate D2E/DX2                !
 ! A14   A(3,9,11)             121.8399         estimate D2E/DX2                !
 ! A15   A(7,9,11)             119.6366         estimate D2E/DX2                !
 ! A16   A(2,10,5)             113.6841         estimate D2E/DX2                !
 ! A17   A(2,10,11)            120.0656         estimate D2E/DX2                !
 ! A18   A(5,10,11)            126.2502         estimate D2E/DX2                !
 ! A19   A(9,11,10)            118.0942         estimate D2E/DX2                !
 ! A20   A(9,11,12)            122.2867         estimate D2E/DX2                !
 ! A21   A(10,11,12)           119.6191         estimate D2E/DX2                !
 ! A22   A(14,13,15)           113.1121         estimate D2E/DX2                !
 ! A23   A(14,13,73)           113.7436         estimate D2E/DX2                !
 ! A24   A(15,13,73)           132.9686         estimate D2E/DX2                !
 ! A25   A(13,14,33)           112.5514         estimate D2E/DX2                !
 ! A26   A(13,14,59)           123.3527         estimate D2E/DX2                !
 ! A27   A(33,14,59)           124.0959         estimate D2E/DX2                !
 ! A28   A(13,15,34)            91.2882         estimate D2E/DX2                !
 ! A29   A(17,16,21)           120.0117         estimate D2E/DX2                !
 ! A30   A(17,16,25)           111.2251         estimate D2E/DX2                !
 ! A31   A(21,16,25)           128.7632         estimate D2E/DX2                !
 ! A32   A(16,17,18)           121.1249         estimate D2E/DX2                !
 ! A33   A(16,17,27)           107.8786         estimate D2E/DX2                !
 ! A34   A(18,17,27)           130.9964         estimate D2E/DX2                !
 ! A35   A(17,18,19)           118.863          estimate D2E/DX2                !
 ! A36   A(17,18,41)           120.8219         estimate D2E/DX2                !
 ! A37   A(19,18,41)           120.315          estimate D2E/DX2                !
 ! A38   A(18,19,20)           120.0112         estimate D2E/DX2                !
 ! A39   A(18,19,22)           128.7654         estimate D2E/DX2                !
 ! A40   A(20,19,22)           111.2234         estimate D2E/DX2                !
 ! A41   A(19,20,21)           121.1262         estimate D2E/DX2                !
 ! A42   A(19,20,24)           107.8806         estimate D2E/DX2                !
 ! A43   A(21,20,24)           130.9932         estimate D2E/DX2                !
 ! A44   A(16,21,20)           118.8629         estimate D2E/DX2                !
 ! A45   A(16,21,40)           120.3139         estimate D2E/DX2                !
 ! A46   A(20,21,40)           120.8232         estimate D2E/DX2                !
 ! A47   A(19,22,23)           101.5507         estimate D2E/DX2                !
 ! A48   A(19,22,36)           109.5811         estimate D2E/DX2                !
 ! A49   A(19,22,37)           113.429          estimate D2E/DX2                !
 ! A50   A(23,22,36)           113.2326         estimate D2E/DX2                !
 ! A51   A(23,22,37)           108.8643         estimate D2E/DX2                !
 ! A52   A(36,22,37)           110.0126         estimate D2E/DX2                !
 ! A53   A(22,23,24)           110.0386         estimate D2E/DX2                !
 ! A54   A(22,23,28)           128.2788         estimate D2E/DX2                !
 ! A55   A(24,23,28)           121.6826         estimate D2E/DX2                !
 ! A56   A(20,24,23)           109.3067         estimate D2E/DX2                !
 ! A57   A(20,24,31)           129.8454         estimate D2E/DX2                !
 ! A58   A(23,24,31)           120.8478         estimate D2E/DX2                !
 ! A59   A(16,25,26)           101.5505         estimate D2E/DX2                !
 ! A60   A(16,25,38)           113.404          estimate D2E/DX2                !
 ! A61   A(16,25,39)           109.6075         estimate D2E/DX2                !
 ! A62   A(26,25,38)           108.8359         estimate D2E/DX2                !
 ! A63   A(26,25,39)           113.2602         estimate D2E/DX2                !
 ! A64   A(38,25,39)           110.012          estimate D2E/DX2                !
 ! A65   A(25,26,27)           110.039          estimate D2E/DX2                !
 ! A66   A(25,26,32)           128.2776         estimate D2E/DX2                !
 ! A67   A(27,26,32)           121.6834         estimate D2E/DX2                !
 ! A68   A(17,27,26)           109.3068         estimate D2E/DX2                !
 ! A69   A(17,27,35)           129.8481         estimate D2E/DX2                !
 ! A70   A(26,27,35)           120.8451         estimate D2E/DX2                !
 ! A71   A(23,28,29)           118.7038         estimate D2E/DX2                !
 ! A72   A(23,28,44)           122.0912         estimate D2E/DX2                !
 ! A73   A(29,28,44)           119.205          estimate D2E/DX2                !
 ! A74   A(28,29,30)           118.7192         estimate D2E/DX2                !
 ! A75   A(28,29,61)           128.613          estimate D2E/DX2                !
 ! A76   A(30,29,61)           112.6678         estimate D2E/DX2                !
 ! A77   A(29,30,31)           122.9302         estimate D2E/DX2                !
 ! A78   A(29,30,60)           110.3802         estimate D2E/DX2                !
 ! A79   A(31,30,60)           126.6896         estimate D2E/DX2                !
 ! A80   A(24,31,30)           117.1163         estimate D2E/DX2                !
 ! A81   A(24,31,45)           121.049          estimate D2E/DX2                !
 ! A82   A(30,31,45)           121.8347         estimate D2E/DX2                !
 ! A83   A(26,32,33)           118.7044         estimate D2E/DX2                !
 ! A84   A(26,32,42)           122.0907         estimate D2E/DX2                !
 ! A85   A(33,32,42)           119.2048         estimate D2E/DX2                !
 ! A86   A(14,33,32)           128.6141         estimate D2E/DX2                !
 ! A87   A(14,33,34)           112.6658         estimate D2E/DX2                !
 ! A88   A(32,33,34)           118.7201         estimate D2E/DX2                !
 ! A89   A(15,34,33)           110.3825         estimate D2E/DX2                !
 ! A90   A(15,34,35)           126.6894         estimate D2E/DX2                !
 ! A91   A(33,34,35)           122.9281         estimate D2E/DX2                !
 ! A92   A(27,35,34)           117.1189         estimate D2E/DX2                !
 ! A93   A(27,35,43)           121.0492         estimate D2E/DX2                !
 ! A94   A(34,35,43)           121.8319         estimate D2E/DX2                !
 ! A95   A(22,36,46)           112.6351         estimate D2E/DX2                !
 ! A96   A(22,36,47)           108.9249         estimate D2E/DX2                !
 ! A97   A(22,36,48)           111.2044         estimate D2E/DX2                !
 ! A98   A(46,36,47)           108.0228         estimate D2E/DX2                !
 ! A99   A(46,36,48)           105.567          estimate D2E/DX2                !
 ! A100  A(47,36,48)           110.4129         estimate D2E/DX2                !
 ! A101  A(22,37,49)           111.1905         estimate D2E/DX2                !
 ! A102  A(22,37,50)           112.8897         estimate D2E/DX2                !
 ! A103  A(22,37,51)           108.1222         estimate D2E/DX2                !
 ! A104  A(49,37,50)           106.3994         estimate D2E/DX2                !
 ! A105  A(49,37,51)           110.1491         estimate D2E/DX2                !
 ! A106  A(50,37,51)           108.0412         estimate D2E/DX2                !
 ! A107  A(25,38,55)           108.124          estimate D2E/DX2                !
 ! A108  A(25,38,56)           112.8947         estimate D2E/DX2                !
 ! A109  A(25,38,57)           111.1943         estimate D2E/DX2                !
 ! A110  A(55,38,56)           108.0419         estimate D2E/DX2                !
 ! A111  A(55,38,57)           110.1441         estimate D2E/DX2                !
 ! A112  A(56,38,57)           106.3927         estimate D2E/DX2                !
 ! A113  A(25,39,52)           112.6294         estimate D2E/DX2                !
 ! A114  A(25,39,53)           111.2042         estimate D2E/DX2                !
 ! A115  A(25,39,54)           108.9195         estimate D2E/DX2                !
 ! A116  A(52,39,53)           105.572          estimate D2E/DX2                !
 ! A117  A(52,39,54)           108.0208         estimate D2E/DX2                !
 ! A118  A(53,39,54)           110.4216         estimate D2E/DX2                !
 ! A119  A(30,60,62)            91.2889         estimate D2E/DX2                !
 ! A120  A(29,61,58)           124.0974         estimate D2E/DX2                !
 ! A121  A(29,61,62)           112.5504         estimate D2E/DX2                !
 ! A122  A(58,61,62)           123.3521         estimate D2E/DX2                !
 ! A123  A(1,62,60)            127.3995         estimate D2E/DX2                !
 ! A124  A(1,62,61)            116.7186         estimate D2E/DX2                !
 ! A125  A(60,62,61)           113.1127         estimate D2E/DX2                !
 ! A126  A(64,63,65)           118.094          estimate D2E/DX2                !
 ! A127  A(64,63,123)          119.6191         estimate D2E/DX2                !
 ! A128  A(65,63,123)          122.2869         estimate D2E/DX2                !
 ! A129  A(63,64,66)           126.2504         estimate D2E/DX2                !
 ! A130  A(63,64,72)           120.0658         estimate D2E/DX2                !
 ! A131  A(66,64,72)           113.6838         estimate D2E/DX2                !
 ! A132  A(63,65,70)           119.6369         estimate D2E/DX2                !
 ! A133  A(63,65,71)           121.8405         estimate D2E/DX2                !
 ! A134  A(70,65,71)           118.5227         estimate D2E/DX2                !
 ! A135  A(64,66,68)           106.1244         estimate D2E/DX2                !
 ! A136  A(68,67,72)           106.1244         estimate D2E/DX2                !
 ! A137  A(66,68,67)           100.3833         estimate D2E/DX2                !
 ! A138  A(65,71,69)           118.5234         estimate D2E/DX2                !
 ! A139  A(65,71,73)           121.8399         estimate D2E/DX2                !
 ! A140  A(69,71,73)           119.6366         estimate D2E/DX2                !
 ! A141  A(64,72,67)           113.6841         estimate D2E/DX2                !
 ! A142  A(64,72,73)           120.0656         estimate D2E/DX2                !
 ! A143  A(67,72,73)           126.2502         estimate D2E/DX2                !
 ! A144  A(13,73,71)           119.6848         estimate D2E/DX2                !
 ! A145  A(13,73,72)           122.1269         estimate D2E/DX2                !
 ! A146  A(71,73,72)           118.0942         estimate D2E/DX2                !
 ! A147  A(75,74,76)           113.0704         estimate D2E/DX2                !
 ! A148  A(75,74,124)          127.7178         estimate D2E/DX2                !
 ! A149  A(76,74,124)          119.2119         estimate D2E/DX2                !
 ! A150  A(74,75,94)           113.1625         estimate D2E/DX2                !
 ! A151  A(74,75,120)          123.4466         estimate D2E/DX2                !
 ! A152  A(94,75,120)          123.3909         estimate D2E/DX2                !
 ! A153  A(74,76,95)            90.9694         estimate D2E/DX2                !
 ! A154  A(78,77,82)           120.7282         estimate D2E/DX2                !
 ! A155  A(78,77,86)           110.9557         estimate D2E/DX2                !
 ! A156  A(82,77,86)           128.3161         estimate D2E/DX2                !
 ! A157  A(77,78,79)           121.0052         estimate D2E/DX2                !
 ! A158  A(77,78,88)           108.5913         estimate D2E/DX2                !
 ! A159  A(79,78,88)           130.4035         estimate D2E/DX2                !
 ! A160  A(78,79,80)           118.2662         estimate D2E/DX2                !
 ! A161  A(78,79,102)          120.7062         estimate D2E/DX2                !
 ! A162  A(80,79,102)          121.0276         estimate D2E/DX2                !
 ! A163  A(79,80,81)           120.7281         estimate D2E/DX2                !
 ! A164  A(79,80,83)           128.3173         estimate D2E/DX2                !
 ! A165  A(81,80,83)           110.9546         estimate D2E/DX2                !
 ! A166  A(80,81,82)           121.0062         estimate D2E/DX2                !
 ! A167  A(80,81,85)           108.5936         estimate D2E/DX2                !
 ! A168  A(82,81,85)           130.4002         estimate D2E/DX2                !
 ! A169  A(77,82,81)           118.266          estimate D2E/DX2                !
 ! A170  A(77,82,101)          121.0277         estimate D2E/DX2                !
 ! A171  A(81,82,101)          120.7063         estimate D2E/DX2                !
 ! A172  A(80,83,84)           101.35           estimate D2E/DX2                !
 ! A173  A(80,83,97)           111.3045         estimate D2E/DX2                !
 ! A174  A(80,83,98)           111.3293         estimate D2E/DX2                !
 ! A175  A(84,83,97)           111.3441         estimate D2E/DX2                !
 ! A176  A(84,83,98)           111.3729         estimate D2E/DX2                !
 ! A177  A(97,83,98)           109.9164         estimate D2E/DX2                !
 ! A178  A(83,84,85)           110.6247         estimate D2E/DX2                !
 ! A179  A(83,84,89)           128.44           estimate D2E/DX2                !
 ! A180  A(85,84,89)           120.9353         estimate D2E/DX2                !
 ! A181  A(81,85,84)           108.4771         estimate D2E/DX2                !
 ! A182  A(81,85,92)           130.2482         estimate D2E/DX2                !
 ! A183  A(84,85,92)           121.2747         estimate D2E/DX2                !
 ! A184  A(77,86,87)           101.3504         estimate D2E/DX2                !
 ! A185  A(77,86,99)           111.3039         estimate D2E/DX2                !
 ! A186  A(77,86,100)          111.3307         estimate D2E/DX2                !
 ! A187  A(87,86,99)           111.345          estimate D2E/DX2                !
 ! A188  A(87,86,100)          111.3724         estimate D2E/DX2                !
 ! A189  A(99,86,100)          109.915          estimate D2E/DX2                !
 ! A190  A(86,87,88)           110.6244         estimate D2E/DX2                !
 ! A191  A(86,87,93)           128.4388         estimate D2E/DX2                !
 ! A192  A(88,87,93)           120.9368         estimate D2E/DX2                !
 ! A193  A(78,88,87)           108.4782         estimate D2E/DX2                !
 ! A194  A(78,88,96)           130.2498         estimate D2E/DX2                !
 ! A195  A(87,88,96)           121.272          estimate D2E/DX2                !
 ! A196  A(84,89,90)           119.0052         estimate D2E/DX2                !
 ! A197  A(84,89,105)          121.346          estimate D2E/DX2                !
 ! A198  A(90,89,105)          119.6488         estimate D2E/DX2                !
 ! A199  A(89,90,91)           119.1597         estimate D2E/DX2                !
 ! A200  A(89,90,122)          128.9862         estimate D2E/DX2                !
 ! A201  A(91,90,122)          111.8541         estimate D2E/DX2                !
 ! A202  A(90,91,92)           122.1917         estimate D2E/DX2                !
 ! A203  A(90,91,121)          110.9439         estimate D2E/DX2                !
 ! A204  A(92,91,121)          126.8644         estimate D2E/DX2                !
 ! A205  A(85,92,91)           117.4334         estimate D2E/DX2                !
 ! A206  A(85,92,106)          121.4781         estimate D2E/DX2                !
 ! A207  A(91,92,106)          121.0885         estimate D2E/DX2                !
 ! A208  A(87,93,94)           119.0058         estimate D2E/DX2                !
 ! A209  A(87,93,103)          121.3469         estimate D2E/DX2                !
 ! A210  A(94,93,103)          119.6474         estimate D2E/DX2                !
 ! A211  A(75,94,93)           128.9871         estimate D2E/DX2                !
 ! A212  A(75,94,95)           111.8539         estimate D2E/DX2                !
 ! A213  A(93,94,95)           119.159          estimate D2E/DX2                !
 ! A214  A(76,95,94)           110.9438         estimate D2E/DX2                !
 ! A215  A(76,95,96)           126.8649         estimate D2E/DX2                !
 ! A216  A(94,95,96)           122.1914         estimate D2E/DX2                !
 ! A217  A(88,96,95)           117.4352         estimate D2E/DX2                !
 ! A218  A(88,96,104)          121.4766         estimate D2E/DX2                !
 ! A219  A(95,96,104)          121.0882         estimate D2E/DX2                !
 ! A220  A(83,97,107)          110.7184         estimate D2E/DX2                !
 ! A221  A(83,97,108)          110.6952         estimate D2E/DX2                !
 ! A222  A(83,97,109)          111.1032         estimate D2E/DX2                !
 ! A223  A(107,97,108)         107.8345         estimate D2E/DX2                !
 ! A224  A(107,97,109)         108.1895         estimate D2E/DX2                !
 ! A225  A(108,97,109)         108.1828         estimate D2E/DX2                !
 ! A226  A(83,98,110)          111.1006         estimate D2E/DX2                !
 ! A227  A(83,98,111)          110.689          estimate D2E/DX2                !
 ! A228  A(83,98,112)          110.7139         estimate D2E/DX2                !
 ! A229  A(110,98,111)         108.1912         estimate D2E/DX2                !
 ! A230  A(110,98,112)         108.1952         estimate D2E/DX2                !
 ! A231  A(111,98,112)         107.8343         estimate D2E/DX2                !
 ! A232  A(86,99,116)          110.7166         estimate D2E/DX2                !
 ! A233  A(86,99,117)          110.695          estimate D2E/DX2                !
 ! A234  A(86,99,118)          111.1019         estimate D2E/DX2                !
 ! A235  A(116,99,117)         107.8354         estimate D2E/DX2                !
 ! A236  A(116,99,118)         108.1908         estimate D2E/DX2                !
 ! A237  A(117,99,118)         108.184          estimate D2E/DX2                !
 ! A238  A(86,100,113)         110.7136         estimate D2E/DX2                !
 ! A239  A(86,100,114)         111.1016         estimate D2E/DX2                !
 ! A240  A(86,100,115)         110.6899         estimate D2E/DX2                !
 ! A241  A(113,100,114)        108.1941         estimate D2E/DX2                !
 ! A242  A(113,100,115)        107.8346         estimate D2E/DX2                !
 ! A243  A(114,100,115)        108.1904         estimate D2E/DX2                !
 ! A244  A(91,121,123)          90.9687         estimate D2E/DX2                !
 ! A245  A(90,122,119)         123.3909         estimate D2E/DX2                !
 ! A246  A(90,122,123)         113.1625         estimate D2E/DX2                !
 ! A247  A(119,122,123)        123.4466         estimate D2E/DX2                !
 ! A248  A(63,123,121)         124.9774         estimate D2E/DX2                !
 ! A249  A(63,123,122)         121.9251         estimate D2E/DX2                !
 ! A250  A(121,123,122)        113.0708         estimate D2E/DX2                !
 ! D1    D(3,1,2,4)            180.0            estimate D2E/DX2                !
 ! D2    D(3,1,2,10)             0.0            estimate D2E/DX2                !
 ! D3    D(62,1,2,4)            21.5941         estimate D2E/DX2                !
 ! D4    D(62,1,2,10)         -158.4059         estimate D2E/DX2                !
 ! D5    D(2,1,3,8)            180.0            estimate D2E/DX2                !
 ! D6    D(2,1,3,9)              0.0            estimate D2E/DX2                !
 ! D7    D(62,1,3,8)           -20.5612         estimate D2E/DX2                !
 ! D8    D(62,1,3,9)           159.4388         estimate D2E/DX2                !
 ! D9    D(2,1,62,60)          -16.9901         estimate D2E/DX2                !
 ! D10   D(2,1,62,61)         -176.7128         estimate D2E/DX2                !
 ! D11   D(3,1,62,60)         -175.6523         estimate D2E/DX2                !
 ! D12   D(3,1,62,61)           24.625          estimate D2E/DX2                !
 ! D13   D(1,2,4,6)            180.0            estimate D2E/DX2                !
 ! D14   D(10,2,4,6)             0.0            estimate D2E/DX2                !
 ! D15   D(1,2,10,5)          -180.0            estimate D2E/DX2                !
 ! D16   D(1,2,10,11)            0.0            estimate D2E/DX2                !
 ! D17   D(4,2,10,5)             0.0            estimate D2E/DX2                !
 ! D18   D(4,2,10,11)         -180.0            estimate D2E/DX2                !
 ! D19   D(1,3,9,7)            180.0            estimate D2E/DX2                !
 ! D20   D(1,3,9,11)             0.0            estimate D2E/DX2                !
 ! D21   D(8,3,9,7)              0.0            estimate D2E/DX2                !
 ! D22   D(8,3,9,11)           180.0            estimate D2E/DX2                !
 ! D23   D(2,4,6,5)              0.0            estimate D2E/DX2                !
 ! D24   D(10,5,6,4)             0.0            estimate D2E/DX2                !
 ! D25   D(6,5,10,2)             0.0            estimate D2E/DX2                !
 ! D26   D(6,5,10,11)          180.0            estimate D2E/DX2                !
 ! D27   D(3,9,11,10)            0.0            estimate D2E/DX2                !
 ! D28   D(3,9,11,12)         -180.0            estimate D2E/DX2                !
 ! D29   D(7,9,11,10)         -180.0            estimate D2E/DX2                !
 ! D30   D(7,9,11,12)            0.0            estimate D2E/DX2                !
 ! D31   D(2,10,11,9)            0.0            estimate D2E/DX2                !
 ! D32   D(2,10,11,12)        -180.0            estimate D2E/DX2                !
 ! D33   D(5,10,11,9)          180.0            estimate D2E/DX2                !
 ! D34   D(5,10,11,12)           0.0            estimate D2E/DX2                !
 ! D35   D(15,13,14,33)          0.0024         estimate D2E/DX2                !
 ! D36   D(15,13,14,59)       -179.9959         estimate D2E/DX2                !
 ! D37   D(73,13,14,33)        175.8216         estimate D2E/DX2                !
 ! D38   D(73,13,14,59)         -4.1767         estimate D2E/DX2                !
 ! D39   D(14,13,15,34)         -0.0111         estimate D2E/DX2                !
 ! D40   D(73,13,15,34)       -174.7785         estimate D2E/DX2                !
 ! D41   D(14,13,73,71)       -179.7135         estimate D2E/DX2                !
 ! D42   D(14,13,73,72)          3.8813         estimate D2E/DX2                !
 ! D43   D(15,13,73,71)         -4.9713         estimate D2E/DX2                !
 ! D44   D(15,13,73,72)        178.6235         estimate D2E/DX2                !
 ! D45   D(13,14,33,32)       -179.9963         estimate D2E/DX2                !
 ! D46   D(13,14,33,34)          0.0105         estimate D2E/DX2                !
 ! D47   D(59,14,33,32)          0.002          estimate D2E/DX2                !
 ! D48   D(59,14,33,34)       -179.9912         estimate D2E/DX2                !
 ! D49   D(13,15,34,33)          0.0165         estimate D2E/DX2                !
 ! D50   D(13,15,34,35)        179.9915         estimate D2E/DX2                !
 ! D51   D(21,16,17,18)          0.0077         estimate D2E/DX2                !
 ! D52   D(21,16,17,27)       -179.9932         estimate D2E/DX2                !
 ! D53   D(25,16,17,18)       -179.9865         estimate D2E/DX2                !
 ! D54   D(25,16,17,27)          0.0127         estimate D2E/DX2                !
 ! D55   D(17,16,21,20)         -0.0098         estimate D2E/DX2                !
 ! D56   D(17,16,21,40)        179.9782         estimate D2E/DX2                !
 ! D57   D(25,16,21,20)        179.9832         estimate D2E/DX2                !
 ! D58   D(25,16,21,40)         -0.0289         estimate D2E/DX2                !
 ! D59   D(17,16,25,26)         -0.0075         estimate D2E/DX2                !
 ! D60   D(17,16,25,38)       -116.5929         estimate D2E/DX2                !
 ! D61   D(17,16,25,39)        120.0378         estimate D2E/DX2                !
 ! D62   D(21,16,25,26)        179.999          estimate D2E/DX2                !
 ! D63   D(21,16,25,38)         63.4137         estimate D2E/DX2                !
 ! D64   D(21,16,25,39)        -59.9557         estimate D2E/DX2                !
 ! D65   D(16,17,18,19)          0.0028         estimate D2E/DX2                !
 ! D66   D(16,17,18,41)       -179.99           estimate D2E/DX2                !
 ! D67   D(27,17,18,19)       -179.9962         estimate D2E/DX2                !
 ! D68   D(27,17,18,41)          0.0111         estimate D2E/DX2                !
 ! D69   D(16,17,27,26)         -0.013          estimate D2E/DX2                !
 ! D70   D(16,17,27,35)        179.985          estimate D2E/DX2                !
 ! D71   D(18,17,27,26)        179.986          estimate D2E/DX2                !
 ! D72   D(18,17,27,35)         -0.016          estimate D2E/DX2                !
 ! D73   D(17,18,19,20)         -0.0107         estimate D2E/DX2                !
 ! D74   D(17,18,19,22)        179.9839         estimate D2E/DX2                !
 ! D75   D(41,18,19,20)        179.982          estimate D2E/DX2                !
 ! D76   D(41,18,19,22)         -0.0233         estimate D2E/DX2                !
 ! D77   D(18,19,20,21)          0.0086         estimate D2E/DX2                !
 ! D78   D(18,19,20,24)       -179.9979         estimate D2E/DX2                !
 ! D79   D(22,19,20,21)       -179.9869         estimate D2E/DX2                !
 ! D80   D(22,19,20,24)          0.0066         estimate D2E/DX2                !
 ! D81   D(18,19,22,23)        179.9935         estimate D2E/DX2                !
 ! D82   D(18,19,22,36)         59.9916         estimate D2E/DX2                !
 ! D83   D(18,19,22,37)        -63.3765         estimate D2E/DX2                !
 ! D84   D(20,19,22,23)         -0.0114         estimate D2E/DX2                !
 ! D85   D(20,19,22,36)       -120.0133         estimate D2E/DX2                !
 ! D86   D(20,19,22,37)        116.6186         estimate D2E/DX2                !
 ! D87   D(19,20,21,16)          0.0018         estimate D2E/DX2                !
 ! D88   D(19,20,21,40)       -179.9861         estimate D2E/DX2                !
 ! D89   D(24,20,21,16)       -179.99           estimate D2E/DX2                !
 ! D90   D(24,20,21,40)          0.0221         estimate D2E/DX2                !
 ! D91   D(19,20,24,23)          0.0016         estimate D2E/DX2                !
 ! D92   D(19,20,24,31)        179.984          estimate D2E/DX2                !
 ! D93   D(21,20,24,23)        179.9942         estimate D2E/DX2                !
 ! D94   D(21,20,24,31)         -0.0233         estimate D2E/DX2                !
 ! D95   D(19,22,23,24)          0.0122         estimate D2E/DX2                !
 ! D96   D(19,22,23,28)       -179.9964         estimate D2E/DX2                !
 ! D97   D(36,22,23,24)        117.3983         estimate D2E/DX2                !
 ! D98   D(36,22,23,28)        -62.6103         estimate D2E/DX2                !
 ! D99   D(37,22,23,24)       -119.9017         estimate D2E/DX2                !
 ! D100  D(37,22,23,28)         60.0897         estimate D2E/DX2                !
 ! D101  D(19,22,36,46)        -63.5641         estimate D2E/DX2                !
 ! D102  D(19,22,36,47)        176.6119         estimate D2E/DX2                !
 ! D103  D(19,22,36,48)         54.7072         estimate D2E/DX2                !
 ! D104  D(23,22,36,46)       -176.1443         estimate D2E/DX2                !
 ! D105  D(23,22,36,47)         64.0317         estimate D2E/DX2                !
 ! D106  D(23,22,36,48)        -57.873          estimate D2E/DX2                !
 ! D107  D(37,22,36,46)         61.7947         estimate D2E/DX2                !
 ! D108  D(37,22,36,47)        -58.0293         estimate D2E/DX2                !
 ! D109  D(37,22,36,48)       -179.9339         estimate D2E/DX2                !
 ! D110  D(19,22,37,49)        -56.9047         estimate D2E/DX2                !
 ! D111  D(19,22,37,50)       -176.4012         estimate D2E/DX2                !
 ! D112  D(19,22,37,51)         64.1335         estimate D2E/DX2                !
 ! D113  D(23,22,37,49)         55.3471         estimate D2E/DX2                !
 ! D114  D(23,22,37,50)        -64.1494         estimate D2E/DX2                !
 ! D115  D(23,22,37,51)        176.3852         estimate D2E/DX2                !
 ! D116  D(36,22,37,49)        179.9642         estimate D2E/DX2                !
 ! D117  D(36,22,37,50)         60.4677         estimate D2E/DX2                !
 ! D118  D(36,22,37,51)        -58.9977         estimate D2E/DX2                !
 ! D119  D(22,23,24,20)         -0.0092         estimate D2E/DX2                !
 ! D120  D(22,23,24,31)       -179.9935         estimate D2E/DX2                !
 ! D121  D(28,23,24,20)        179.9987         estimate D2E/DX2                !
 ! D122  D(28,23,24,31)          0.0144         estimate D2E/DX2                !
 ! D123  D(22,23,28,29)       -179.9934         estimate D2E/DX2                !
 ! D124  D(22,23,28,44)         -0.0022         estimate D2E/DX2                !
 ! D125  D(24,23,28,29)         -0.0029         estimate D2E/DX2                !
 ! D126  D(24,23,28,44)        179.9884         estimate D2E/DX2                !
 ! D127  D(20,24,31,30)       -179.9953         estimate D2E/DX2                !
 ! D128  D(20,24,31,45)         -0.0032         estimate D2E/DX2                !
 ! D129  D(23,24,31,30)         -0.0146         estimate D2E/DX2                !
 ! D130  D(23,24,31,45)        179.9775         estimate D2E/DX2                !
 ! D131  D(16,25,26,27)         -0.0007         estimate D2E/DX2                !
 ! D132  D(16,25,26,32)        179.9915         estimate D2E/DX2                !
 ! D133  D(38,25,26,27)        119.8722         estimate D2E/DX2                !
 ! D134  D(38,25,26,32)        -60.1356         estimate D2E/DX2                !
 ! D135  D(39,25,26,27)       -117.4304         estimate D2E/DX2                !
 ! D136  D(39,25,26,32)         62.5618         estimate D2E/DX2                !
 ! D137  D(16,25,38,55)        -64.105          estimate D2E/DX2                !
 ! D138  D(16,25,38,56)        176.4244         estimate D2E/DX2                !
 ! D139  D(16,25,38,57)         56.9305         estimate D2E/DX2                !
 ! D140  D(26,25,38,55)       -176.3256         estimate D2E/DX2                !
 ! D141  D(26,25,38,56)         64.2038         estimate D2E/DX2                !
 ! D142  D(26,25,38,57)        -55.2901         estimate D2E/DX2                !
 ! D143  D(39,25,38,55)         59.0422         estimate D2E/DX2                !
 ! D144  D(39,25,38,56)        -60.4284         estimate D2E/DX2                !
 ! D145  D(39,25,38,57)       -179.9223         estimate D2E/DX2                !
 ! D146  D(16,25,39,52)         63.5905         estimate D2E/DX2                !
 ! D147  D(16,25,39,53)        -54.6833         estimate D2E/DX2                !
 ! D148  D(16,25,39,54)       -176.5952         estimate D2E/DX2                !
 ! D149  D(26,25,39,52)        176.2023         estimate D2E/DX2                !
 ! D150  D(26,25,39,53)         57.9285         estimate D2E/DX2                !
 ! D151  D(26,25,39,54)        -63.9834         estimate D2E/DX2                !
 ! D152  D(38,25,39,52)        -61.7545         estimate D2E/DX2                !
 ! D153  D(38,25,39,53)        179.9716         estimate D2E/DX2                !
 ! D154  D(38,25,39,54)         58.0597         estimate D2E/DX2                !
 ! D155  D(25,26,27,17)          0.0083         estimate D2E/DX2                !
 ! D156  D(25,26,27,35)       -179.9899         estimate D2E/DX2                !
 ! D157  D(32,26,27,17)       -179.9845         estimate D2E/DX2                !
 ! D158  D(32,26,27,35)          0.0173         estimate D2E/DX2                !
 ! D159  D(25,26,32,33)       -179.9977         estimate D2E/DX2                !
 ! D160  D(25,26,32,42)          0.0052         estimate D2E/DX2                !
 ! D161  D(27,26,32,33)         -0.0063         estimate D2E/DX2                !
 ! D162  D(27,26,32,42)        179.9966         estimate D2E/DX2                !
 ! D163  D(17,27,35,34)        179.9892         estimate D2E/DX2                !
 ! D164  D(17,27,35,43)         -0.0166         estimate D2E/DX2                !
 ! D165  D(26,27,35,34)         -0.013          estimate D2E/DX2                !
 ! D166  D(26,27,35,43)        179.9812         estimate D2E/DX2                !
 ! D167  D(23,28,29,30)         -0.0072         estimate D2E/DX2                !
 ! D168  D(23,28,29,61)        179.9847         estimate D2E/DX2                !
 ! D169  D(44,28,29,30)       -179.9988         estimate D2E/DX2                !
 ! D170  D(44,28,29,61)         -0.0068         estimate D2E/DX2                !
 ! D171  D(28,29,30,31)          0.0067         estimate D2E/DX2                !
 ! D172  D(28,29,30,60)        179.9972         estimate D2E/DX2                !
 ! D173  D(61,29,30,31)       -179.9865         estimate D2E/DX2                !
 ! D174  D(61,29,30,60)          0.004          estimate D2E/DX2                !
 ! D175  D(28,29,61,58)          0.0057         estimate D2E/DX2                !
 ! D176  D(28,29,61,62)        179.9913         estimate D2E/DX2                !
 ! D177  D(30,29,61,58)        179.998          estimate D2E/DX2                !
 ! D178  D(30,29,61,62)         -0.0163         estimate D2E/DX2                !
 ! D179  D(29,30,31,24)          0.0043         estimate D2E/DX2                !
 ! D180  D(29,30,31,45)       -179.9877         estimate D2E/DX2                !
 ! D181  D(60,30,31,24)       -179.9845         estimate D2E/DX2                !
 ! D182  D(60,30,31,45)          0.0235         estimate D2E/DX2                !
 ! D183  D(29,30,60,62)          0.0064         estimate D2E/DX2                !
 ! D184  D(31,30,60,62)        179.9964         estimate D2E/DX2                !
 ! D185  D(26,32,33,14)        179.9997         estimate D2E/DX2                !
 ! D186  D(26,32,33,34)         -0.0075         estimate D2E/DX2                !
 ! D187  D(42,32,33,14)         -0.0031         estimate D2E/DX2                !
 ! D188  D(42,32,33,34)        179.9897         estimate D2E/DX2                !
 ! D189  D(14,33,34,15)         -0.0185         estimate D2E/DX2                !
 ! D190  D(14,33,34,35)       -179.9945         estimate D2E/DX2                !
 ! D191  D(32,33,34,15)        179.9876         estimate D2E/DX2                !
 ! D192  D(32,33,34,35)          0.0116         estimate D2E/DX2                !
 ! D193  D(15,34,35,27)       -179.9731         estimate D2E/DX2                !
 ! D194  D(15,34,35,43)          0.0327         estimate D2E/DX2                !
 ! D195  D(33,34,35,27)         -0.0011         estimate D2E/DX2                !
 ! D196  D(33,34,35,43)       -179.9953         estimate D2E/DX2                !
 ! D197  D(30,60,62,1)        -160.3478         estimate D2E/DX2                !
 ! D198  D(30,60,62,61)         -0.0162         estimate D2E/DX2                !
 ! D199  D(29,61,62,1)         162.603          estimate D2E/DX2                !
 ! D200  D(29,61,62,60)          0.0212         estimate D2E/DX2                !
 ! D201  D(58,61,62,1)         -17.4112         estimate D2E/DX2                !
 ! D202  D(58,61,62,60)       -179.993          estimate D2E/DX2                !
 ! D203  D(65,63,64,66)       -180.0            estimate D2E/DX2                !
 ! D204  D(65,63,64,72)          0.0            estimate D2E/DX2                !
 ! D205  D(123,63,64,66)         0.0            estimate D2E/DX2                !
 ! D206  D(123,63,64,72)       180.0            estimate D2E/DX2                !
 ! D207  D(64,63,65,70)        180.0            estimate D2E/DX2                !
 ! D208  D(64,63,65,71)          0.0            estimate D2E/DX2                !
 ! D209  D(123,63,65,70)         0.0            estimate D2E/DX2                !
 ! D210  D(123,63,65,71)       180.0            estimate D2E/DX2                !
 ! D211  D(64,63,123,121)      146.5127         estimate D2E/DX2                !
 ! D212  D(64,63,123,122)      -31.4764         estimate D2E/DX2                !
 ! D213  D(65,63,123,121)      -33.4873         estimate D2E/DX2                !
 ! D214  D(65,63,123,122)      148.5236         estimate D2E/DX2                !
 ! D215  D(63,64,66,68)        180.0            estimate D2E/DX2                !
 ! D216  D(72,64,66,68)          0.0            estimate D2E/DX2                !
 ! D217  D(63,64,72,67)        180.0            estimate D2E/DX2                !
 ! D218  D(63,64,72,73)          0.0            estimate D2E/DX2                !
 ! D219  D(66,64,72,67)          0.0            estimate D2E/DX2                !
 ! D220  D(66,64,72,73)       -180.0            estimate D2E/DX2                !
 ! D221  D(63,65,71,69)       -180.0            estimate D2E/DX2                !
 ! D222  D(63,65,71,73)          0.0            estimate D2E/DX2                !
 ! D223  D(70,65,71,69)          0.0            estimate D2E/DX2                !
 ! D224  D(70,65,71,73)        180.0            estimate D2E/DX2                !
 ! D225  D(64,66,68,67)          0.0            estimate D2E/DX2                !
 ! D226  D(72,67,68,66)          0.0            estimate D2E/DX2                !
 ! D227  D(68,67,72,64)          0.0            estimate D2E/DX2                !
 ! D228  D(68,67,72,73)        180.0            estimate D2E/DX2                !
 ! D229  D(65,71,73,13)       -176.5492         estimate D2E/DX2                !
 ! D230  D(65,71,73,72)          0.0            estimate D2E/DX2                !
 ! D231  D(69,71,73,13)          3.4508         estimate D2E/DX2                !
 ! D232  D(69,71,73,72)       -180.0            estimate D2E/DX2                !
 ! D233  D(64,72,73,13)        176.4599         estimate D2E/DX2                !
 ! D234  D(64,72,73,71)          0.0            estimate D2E/DX2                !
 ! D235  D(67,72,73,13)         -3.5401         estimate D2E/DX2                !
 ! D236  D(67,72,73,71)        180.0            estimate D2E/DX2                !
 ! D237  D(76,74,75,94)         -0.0024         estimate D2E/DX2                !
 ! D238  D(76,74,75,120)       179.9959         estimate D2E/DX2                !
 ! D239  D(124,74,75,94)      -179.9948         estimate D2E/DX2                !
 ! D240  D(124,74,75,120)        0.0035         estimate D2E/DX2                !
 ! D241  D(75,74,76,95)          0.0111         estimate D2E/DX2                !
 ! D242  D(124,74,76,95)      -179.9958         estimate D2E/DX2                !
 ! D243  D(74,75,94,93)        179.9963         estimate D2E/DX2                !
 ! D244  D(74,75,94,95)         -0.0105         estimate D2E/DX2                !
 ! D245  D(120,75,94,93)        -0.002          estimate D2E/DX2                !
 ! D246  D(120,75,94,95)       179.9912         estimate D2E/DX2                !
 ! D247  D(74,76,95,94)         -0.0167         estimate D2E/DX2                !
 ! D248  D(74,76,95,96)       -179.9914         estimate D2E/DX2                !
 ! D249  D(82,77,78,79)         -0.0077         estimate D2E/DX2                !
 ! D250  D(82,77,78,88)        179.9931         estimate D2E/DX2                !
 ! D251  D(86,77,78,79)        179.9864         estimate D2E/DX2                !
 ! D252  D(86,77,78,88)         -0.0128         estimate D2E/DX2                !
 ! D253  D(78,77,82,81)          0.0098         estimate D2E/DX2                !
 ! D254  D(78,77,82,101)      -179.9781         estimate D2E/DX2                !
 ! D255  D(86,77,82,81)       -179.9831         estimate D2E/DX2                !
 ! D256  D(86,77,82,101)         0.029          estimate D2E/DX2                !
 ! D257  D(78,77,86,87)          0.0075         estimate D2E/DX2                !
 ! D258  D(78,77,86,99)        118.4809         estimate D2E/DX2                !
 ! D259  D(78,77,86,100)      -118.5096         estimate D2E/DX2                !
 ! D260  D(82,77,86,87)       -179.999          estimate D2E/DX2                !
 ! D261  D(82,77,86,99)        -61.5255         estimate D2E/DX2                !
 ! D262  D(82,77,86,100)        61.4839         estimate D2E/DX2                !
 ! D263  D(77,78,79,80)         -0.0028         estimate D2E/DX2                !
 ! D264  D(77,78,79,102)       179.99           estimate D2E/DX2                !
 ! D265  D(88,78,79,80)        179.9962         estimate D2E/DX2                !
 ! D266  D(88,78,79,102)        -0.011          estimate D2E/DX2                !
 ! D267  D(77,78,88,87)          0.013          estimate D2E/DX2                !
 ! D268  D(77,78,88,96)       -179.985          estimate D2E/DX2                !
 ! D269  D(79,78,88,87)       -179.986          estimate D2E/DX2                !
[...]
 ! D310  D(80,83,98,112)       -64.0146         estimate D2E/DX2                !
 ! D311  D(84,83,98,110)       -56.0808         estimate D2E/DX2                !
 ! D312  D(84,83,98,111)        64.1458         estimate D2E/DX2                !
 ! D313  D(84,83,98,112)      -176.3289         estimate D2E/DX2                !
 ! D314  D(97,83,98,110)      -179.9641         estimate D2E/DX2                !
 ! D315  D(97,83,98,111)       -59.7376         estimate D2E/DX2                !
 ! D316  D(97,83,98,112)        59.7878         estimate D2E/DX2                !
 ! D317  D(83,84,85,81)          0.0091         estimate D2E/DX2                !
 ! D318  D(83,84,85,92)        179.9935         estimate D2E/DX2                !
 ! D319  D(89,84,85,81)       -179.9987         estimate D2E/DX2                !
 ! D320  D(89,84,85,92)         -0.0144         estimate D2E/DX2                !
 ! D321  D(83,84,89,90)        179.9935         estimate D2E/DX2                !
 ! D322  D(83,84,89,105)         0.0022         estimate D2E/DX2                !
 ! D323  D(85,84,89,90)          0.0029         estimate D2E/DX2                !
 ! D324  D(85,84,89,105)      -179.9884         estimate D2E/DX2                !
 ! D325  D(81,85,92,91)        179.9953         estimate D2E/DX2                !
 ! D326  D(81,85,92,106)         0.0033         estimate D2E/DX2                !
 ! D327  D(84,85,92,91)          0.0147         estimate D2E/DX2                !
 ! D328  D(84,85,92,106)      -179.9773         estimate D2E/DX2                !
 ! D329  D(77,86,87,88)          0.0007         estimate D2E/DX2                !
 ! D330  D(77,86,87,93)       -179.9914         estimate D2E/DX2                !
 ! D331  D(99,86,87,88)       -118.4432         estimate D2E/DX2                !
 ! D332  D(99,86,87,93)         61.5647         estimate D2E/DX2                !
 ! D333  D(100,86,87,88)       118.4878         estimate D2E/DX2                !
 ! D334  D(100,86,87,93)       -61.5044         estimate D2E/DX2                !
 ! D335  D(77,86,99,116)        63.9846         estimate D2E/DX2                !
 ! D336  D(77,86,99,117)      -176.483          estimate D2E/DX2                !
 ! D337  D(77,86,99,118)       -56.2607         estimate D2E/DX2                !
 ! D338  D(87,86,99,116)       176.2684         estimate D2E/DX2                !
 ! D339  D(87,86,99,117)       -64.1992         estimate D2E/DX2                !
 ! D340  D(87,86,99,118)        56.0231         estimate D2E/DX2                !
 ! D341  D(100,86,99,116)      -59.8325         estimate D2E/DX2                !
 ! D342  D(100,86,99,117)       59.6999         estimate D2E/DX2                !
 ! D343  D(100,86,99,118)      179.9222         estimate D2E/DX2                !
 ! D344  D(77,86,100,113)      -64.0204         estimate D2E/DX2                !
 ! D345  D(77,86,100,114)       56.2268         estimate D2E/DX2                !
 ! D346  D(77,86,100,115)      176.4535         estimate D2E/DX2                !
 ! D347  D(87,86,100,113)     -176.3357         estimate D2E/DX2                !
 ! D348  D(87,86,100,114)      -56.0886         estimate D2E/DX2                !
 ! D349  D(87,86,100,115)       64.1382         estimate D2E/DX2                !
 ! D350  D(99,86,100,113)       59.7811         estimate D2E/DX2                !
 ! D351  D(99,86,100,114)     -179.9718         estimate D2E/DX2                !
 ! D352  D(99,86,100,115)      -59.745          estimate D2E/DX2                !
 ! D353  D(86,87,88,78)         -0.0083         estimate D2E/DX2                !
 ! D354  D(86,87,88,96)        179.9899         estimate D2E/DX2                !
 ! D355  D(93,87,88,78)        179.9846         estimate D2E/DX2                !
 ! D356  D(93,87,88,96)         -0.0172         estimate D2E/DX2                !
 ! D357  D(86,87,93,94)        179.9977         estimate D2E/DX2                !
 ! D358  D(86,87,93,103)        -0.0051         estimate D2E/DX2                !
 ! D359  D(88,87,93,94)          0.0063         estimate D2E/DX2                !
 ! D360  D(88,87,93,103)      -179.9966         estimate D2E/DX2                !
 ! D361  D(78,88,96,95)       -179.9891         estimate D2E/DX2                !
 ! D362  D(78,88,96,104)         0.0167         estimate D2E/DX2                !
 ! D363  D(87,88,96,95)          0.0131         estimate D2E/DX2                !
 ! D364  D(87,88,96,104)      -179.981          estimate D2E/DX2                !
 ! D365  D(84,89,90,91)          0.0073         estimate D2E/DX2                !
 ! D366  D(84,89,90,122)      -179.9846         estimate D2E/DX2                !
 ! D367  D(105,89,90,91)       179.9988         estimate D2E/DX2                !
 ! D368  D(105,89,90,122)        0.0069         estimate D2E/DX2                !
 ! D369  D(89,90,91,92)         -0.0067         estimate D2E/DX2                !
 ! D370  D(89,90,91,121)      -179.9972         estimate D2E/DX2                !
 ! D371  D(122,90,91,92)       179.9865         estimate D2E/DX2                !
 ! D372  D(122,90,91,121)       -0.004          estimate D2E/DX2                !
 ! D373  D(89,90,122,119)       -0.0056         estimate D2E/DX2                !
 ! D374  D(89,90,122,123)     -179.9913         estimate D2E/DX2                !
 ! D375  D(91,90,122,119)     -179.998          estimate D2E/DX2                !
 ! D376  D(91,90,122,123)        0.0163         estimate D2E/DX2                !
 ! D377  D(90,91,92,85)         -0.0043         estimate D2E/DX2                !
 ! D378  D(90,91,92,106)       179.9877         estimate D2E/DX2                !
 ! D379  D(121,91,92,85)       179.9846         estimate D2E/DX2                !
 ! D380  D(121,91,92,106)       -0.0234         estimate D2E/DX2                !
 ! D381  D(90,91,121,123)       -0.0064         estimate D2E/DX2                !
 ! D382  D(92,91,121,123)     -179.9963         estimate D2E/DX2                !
 ! D383  D(87,93,94,75)       -179.9997         estimate D2E/DX2                !
 ! D384  D(87,93,94,95)          0.0076         estimate D2E/DX2                !
 ! D385  D(103,93,94,75)         0.0032         estimate D2E/DX2                !
 ! D386  D(103,93,94,95)      -179.9896         estimate D2E/DX2                !
 ! D387  D(75,94,95,76)          0.0184         estimate D2E/DX2                !
 ! D388  D(75,94,95,96)        179.9945         estimate D2E/DX2                !
 ! D389  D(93,94,95,76)       -179.9876         estimate D2E/DX2                !
 ! D390  D(93,94,95,96)         -0.0116         estimate D2E/DX2                !
 ! D391  D(76,95,96,88)        179.9732         estimate D2E/DX2                !
 ! D392  D(76,95,96,104)        -0.0326         estimate D2E/DX2                !
 ! D393  D(94,95,96,88)          0.0011         estimate D2E/DX2                !
 ! D394  D(94,95,96,104)       179.9953         estimate D2E/DX2                !
 ! D395  D(91,121,123,63)     -178.1289         estimate D2E/DX2                !
 ! D396  D(91,121,123,122)       0.0161         estimate D2E/DX2                !
 ! D397  D(90,122,123,63)      178.1878         estimate D2E/DX2                !
 ! D398  D(90,122,123,121)      -0.0214         estimate D2E/DX2                !
 ! D399  D(119,122,123,63)      -1.7979         estimate D2E/DX2                !
 ! D400  D(119,122,123,121)    179.9929         estimate D2E/DX2                !
 --------------------------------------------------------------------------------
 Trust Radius=3.00D-01 FncErr=1.00D-07 GrdErr=1.00D-06 EigMax=2.50D+02 EigMin=1.00D-04
 Number of steps in this run=    744 maximum allowed number of steps=    744.
 GradGradGradGradGradGradGradGradGradGradGradGradGradGradGradGradGradGrad

 Leave Link  103 at Sat Nov 11 22:41:14 2023, MaxMem=  1207959552 cpu:               0.3 elap:               0.0
 (Enter /opt/apps/chemistry/Gaussian/g16/l202.exe)
 Stoichiometry    C68H46N4S6
 Framework group  C1[X(C68H46N4S6)]
 Deg. of freedom   366
 Full point group                 C1      NOp   1
 Largest Abelian subgroup         C1      NOp   1
 Largest concise Abelian subgroup C1      NOp   1
                         Standard orientation:                         
 ---------------------------------------------------------------------
 Center     Atomic      Atomic             Coordinates (Angstroms)
 Number     Number       Type             X           Y           Z
 ---------------------------------------------------------------------
      1          6           0      -17.120180    0.149035    0.241974
      2          6           0      -17.887634   -1.041519    0.082589
      3          6           0      -17.789631    1.342297    0.325128
      4          7           0      -17.405573   -2.287456   -0.015786
      5          7           0      -19.927175   -2.161826   -0.137530
      6         16           0      -18.713371   -3.271463   -0.183377
      7          1           0      -19.694587    2.388016    0.327814
      8          1           0      -17.229499    2.265218    0.446832
      9          6           0      -19.219638    1.413540    0.256087
     10          6           0      -19.335641   -0.969384    0.012678
     11          6           0      -19.993006    0.292149    0.103271
     12          1           0      -21.075586    0.337657    0.050165
     13          6           0       -0.427127    0.893201    0.077324
     14          6           0       -1.076206   -0.261179   -0.178567
     15         16           0       -1.516306    2.250236    0.368704
     16          6           0       -7.195551   -0.536181   -0.269800
     17          6           0       -6.678050    0.738462    0.011877
     18          6           0       -7.531922    1.836254    0.248122
     19          6           0       -8.904626    1.639946    0.198484
     20          6           0       -9.422097    0.365359   -0.083354
     21          6           0       -8.568232   -0.732432   -0.319650
     22          6           0      -10.034179    2.664509    0.417703
     23          6           0      -11.268950    1.802230    0.222534
     24          6           0      -10.886502    0.460447   -0.069624
     25          6           0       -6.066088   -1.560903   -0.488348
     26          6           0       -4.831279   -0.698610   -0.293472
     27          6           0       -5.213659    0.643288   -0.001790
     28          6           0      -12.602158    2.179970    0.298809
     29          6           0      -13.589560    1.210500    0.081495
     30          6           0      -13.185759   -0.125145   -0.209438
     31          6           0      -11.838684   -0.515615   -0.288453
     32          6           0       -3.498128   -1.076519   -0.369305
     33          6           0       -2.510654   -0.107073   -0.152210
     34          6           0       -2.914327    1.228809    0.137743
     35          6           0       -4.261357    1.619428    0.216362
     36          6           0       -9.912503    3.802499   -0.625883
     37          6           0      -10.058417    3.254137    1.839930
     38          6           0       -6.041582   -2.150101   -1.910818
     39          6           0       -6.188042   -2.699203    0.554810
     40          1           0       -8.972051   -1.711880   -0.536489
     41          1           0       -7.128083    2.815815    0.464454
     42          1           0       -3.197918   -2.101815   -0.592070
     43          1           0       -4.549961    2.646445    0.439306
     44          1           0      -12.902444    3.205111    0.522174
     45          1           0      -11.549970   -1.542385   -0.512417
     46          1           0       -8.990063    4.373319   -0.518513
     47          1           0      -10.760827    4.497226   -0.498564
     48          1           0       -9.894739    3.405871   -1.641881
     49          1           0      -10.144961    2.463445    2.595641
     50          1           0      -10.909343    3.939721    2.006696
     51          1           0       -9.138699    3.816069    1.989052
     52          1           0       -7.110142   -3.270287    0.446536
     53          1           0       -6.206667   -2.302851    1.570938
     54          1           0       -5.339408   -3.393567    0.427726
     55          1           0       -6.961634   -2.711272   -2.060623
     56          1           0       -5.191065   -2.836241   -2.077503
     57          1           0       -5.954087   -1.359233   -2.666311
     58          1           0      -15.534496    2.307108    0.312841
     59          1           0       -0.565848   -1.204072   -0.382211
     60         16           0      -14.583750   -1.146729   -0.440065
     61          6           0      -15.024048    1.364385    0.108518
     62          6           0      -15.673033    0.210101   -0.147944
     63          6           0        3.939041    0.592332    0.179407
     64          6           0        3.164972   -0.572412   -0.096266
     65          6           0        3.274467    1.765227    0.427626
     66          7           0        3.641676   -1.796253   -0.359677
     67          7           0        1.117601   -1.663396   -0.381388
     68         16           0        2.327590   -2.756353   -0.600671
     69          1           0        1.372178    2.798137    0.619422
     70          1           0        3.839685    2.668273    0.640650
     71          6           0        1.843057    1.840569    0.415313
     72          6           0        1.715544   -0.496127   -0.108735
     73          6           0        1.063397    0.743681    0.154669
     74          6           0       20.657787   -0.589347   -0.074397
     75          6           0       20.008992    0.542869   -0.451279
     76         16           0       19.571273   -1.867829    0.429133
     77          6           0       13.899383    0.981666   -0.346176
     78          6           0       14.416905   -0.262841    0.076615
     79          6           0       13.565183   -1.297810    0.483451
     80          6           0       12.194600   -1.069454    0.460886
     81          6           0       11.677091    0.174976    0.037941
     82          6           0       12.528801    1.209938   -0.368945
     83          6           0       11.067633   -2.025904    0.851869
     84          6           0        9.834268   -1.158951    0.594634
     85          6           0       10.215156    0.124782    0.118931
     86          6           0       15.026328    1.938358   -0.736511
     87          6           0       16.259701    1.071354   -0.479567
     88          6           0       15.878833   -0.212554   -0.004323
     89          6           0        8.503509   -1.485579    0.768841
     90          6           0        7.517047   -0.522207    0.466614
     91          6           0        7.919236    0.754971   -0.007894
     92          6           0        9.263828    1.093486   -0.186970
     93          6           0       17.590450    1.398207   -0.653355
     94          6           0       18.576963    0.434829   -0.351351
     95          6           0       18.174803   -0.842709    0.122211
     96          6           0       16.830214   -1.181422    0.300911
     97          6           0       11.065509   -3.286323   -0.042081
     98          6           0       11.168198   -2.435145    2.338522
     99          6           0       14.925998    2.347135   -2.223359
    100          6           0       15.028140    3.199041    0.156985
    101          1           0       12.124940    2.166359   -0.693981
    102          1           0       13.969013   -2.254406    0.807998
    103          1           0       17.889496    2.378973   -1.016677
    104          1           0       16.542731   -2.164210    0.664193
    105          1           0        8.204447   -2.466117    1.132742
    106          1           0        9.551318    2.075901   -0.551235
    107          1           0       11.984697   -3.865965    0.102598
    108          1           0       10.217060   -3.935100    0.204992
    109          1           0       10.993615   -3.018369   -1.100976
    110          1           0       11.170620   -1.555566    2.990083
    111          1           0       10.321133   -3.069928    2.623641
    112          1           0       12.088866   -3.000759    2.523570
    113          1           0       14.109209    3.778822    0.011363
    114          1           0       15.099193    2.931401    1.216007
    115          1           0       15.876913    3.847477   -0.089820
    116          1           0       14.004915    2.911921   -2.408975
    117          1           0       15.772674    2.982492   -2.508455
    118          1           0       14.924541    1.467381   -2.874718
    119          1           0        5.576114   -1.524996    0.909580
    120          1           0       20.517903    1.438175   -0.793028
    121         16           0        6.522832    1.780286   -0.314506
    122          6           0        6.085047   -0.629945    0.567177
    123          6           0        5.436289    0.502102    0.189737
    124          1           0       21.725317   -0.766024   -0.056876
 ---------------------------------------------------------------------
 Rotational constants (GHZ):           0.1349829           0.0030707           0.0030176
 Leave Link  202 at Sat Nov 11 22:41:14 2023, MaxMem=  1207959552 cpu:               0.0 elap:               0.0
 (Enter /opt/apps/chemistry/Gaussian/g16/l301.exe)
 Standard basis: 3-21G* (6D, 7F)
 Ernie: Thresh=  0.10000D-02 Tol=  0.10000D-05 Strict=F.
 There are   854 symmetry adapted cartesian basis functions of A   symmetry.
 There are   854 symmetry adapted basis functions of A   symmetry.
   854 basis functions,  1416 primitive gaussians,   854 cartesian basis functions
   289 alpha electrons      289 beta electrons
       nuclear repulsion energy     11132.8750855695 Hartrees.
 IExCor=  402 DFT=T Ex+Corr=B3LYP ExCW=0 ScaHFX=  0.200000
 ScaDFX=  0.800000  0.720000  1.000000  0.810000 ScalE2=  1.000000  1.000000
 IRadAn=      5 IRanWt=     -1 IRanGd=            0 ICorTp=0 IEmpDi=  4
 NAtoms=  124 NActive=  124 NUniq=  124 SFac= 1.00D+00 NAtFMM=   60 NAOKFM=T Big=T
 Integral buffers will be    131072 words long.
 Raffenetti 2 integral format.
 Two-electron integral symmetry is turned on.
 Leave Link  301 at Sat Nov 11 22:41:14 2023, MaxMem=  1207959552 cpu:               0.5 elap:               0.1
 (Enter /opt/apps/chemistry/Gaussian/g16/l302.exe)
 NPDir=0 NMtPBC=     1 NCelOv=     1 NCel=       1 NClECP=     1 NCelD=      1
         NCelK=      1 NCelE2=     1 NClLst=     1 CellRange=     0.0.
 One-electron integrals computed using PRISM.
 One-electron integral symmetry used in STVInt
 NBasis=   854 RedAO= T EigKep=  1.05D-03  NBF=   854
 NBsUse=   854 1.00D-06 EigRej= -1.00D+00 NBFU=   854
 Precomputing XC quadrature grid using
 IXCGrd= 4 IRadAn=           5 IRanWt=          -1 IRanGd=           0 AccXCQ= 0.00D+00.
 Generated NRdTot=       0 NPtTot=           0 NUsed=           0 NTot=          32
 NSgBfM=   493   492   493   493   493 MxSgAt=   124 MxSgA2=   104.
 Leave Link  302 at Sat Nov 11 22:41:16 2023, MaxMem=  1207959552 cpu:              17.5 elap:               1.8
 (Enter /opt/apps/chemistry/Gaussian/g16/l303.exe)
 DipDrv:  MaxL=1.
 Leave Link  303 at Sat Nov 11 22:41:16 2023, MaxMem=  1207959552 cpu:               0.9 elap:               0.1
 (Enter /opt/apps/chemistry/Gaussian/g16/l401.exe)
 ExpMin= 1.42D-01 ExpMax= 1.21D+03 ExpMxC= 1.21D+03 IAcc=3 IRadAn=         5 AccDes= 0.00D+00
 Harris functional with IExCor=  402 and IRadAn=       5 diagonalized for initial guess.
 HarFok:  IExCor=  402 AccDes= 0.00D+00 IRadAn=         5 IDoV= 1 UseB2=F ITyADJ=14
 ICtDFT=  3500011 ScaDFX=  1.000000  1.000000  1.000000  1.000000
