 Entering Gaussian System, Link 0=g16
 Input=oligomer-6.com
 Output=oligomer-6.log
 Initial command:
 /opt/apps/chemistry/Gaussian/g16/l1.exe "/tmp/Gau-137674.inp" -scrdir="/tmp/"
 Entering Link 1 = /opt/apps/chemistry/Gaussian/g16/l1.exe PID=    137676.
  
 Copyright (c) 1988,1990,1992,1993,1995,1998,2003,2009,2016,
            Gaussian, Inc.  All Rights Reserved.
  
 This is part of the Gaussian(R) 16 program.  It is based on
 the Gaussian(R) 09 system (copyright 2009, Gaussian, Inc.),
 the Gaussian(R) 03 system (copyright 2003, Gaussian, Inc.),
 the Gaussian(R) 98 system (copyright 1998, Gaussian, Inc.),
 the Gaussian(R) 94 system (copyright 1995, Gaussian, Inc.),
 the Gaussian 92(TM) system (copyright 1992, Gaussian, Inc.),
 the Gaussian 90(TM) system (copyright 1990, Gaussian, Inc.),
 the Gaussian 88(TM) system (copyright 1988, Gaussian, Inc.),
 the Gaussian 86(TM) system (copyright 1986, Carnegie Mellon
 University), and the Gaussian 82(TM) system (copyright 1983,
 Carnegie Mellon University). Gaussian is a federally registered
 trademark of Gaussian, Inc.
  
 This software contains proprietary and confidential information,
 including trade secrets, belonging to Gaussian, Inc.
  
 This software is provided under written license and may be
 used, copied, transmitted, or stored only in accord with that
 written license.
  
 The following legend is applicable only to US Government
 contracts under FAR:
  
                    RESTRICTED RIGHTS LEGEND
  
 Use, reproduction and disclosure by the US Government is
 subject to restrictions as set forth in subparagraphs (a)
 and (c) of the Commercial Computer Software - Restricted
 Rights clause in FAR 52.227-19.
  
 Gaussian, Inc.
 340 Quinnipiac St., Bldg. 40, Wallingford CT 06492
  
  
 ---------------------------------------------------------------
 Warning -- This program may not be used in any manner that
 competes with the business of Gaussian, Inc. or will provide
 assistance to any competitor of Gaussian, Inc.  The licensee
 of this program is prohibited from giving any competitor of
 Gaussian, Inc. access to this program.  By using this program,
 the user acknowledges that Gaussian, Inc. is engaged in the
 business of creating and licensing software in the field of
 computational chemistry and represents and warrants to the
 licensee that it is not a competitor of Gaussian, Inc. and that
 it will not use this program in any manner prohibited above.
 ---------------------------------------------------------------
  

 Cite this work as:
 Gaussian 16, Revision A.03,
 M. J. Frisch, G. W. Trucks, H. B. Schlegel, G. E. Scuseria, 
 M. A. Robb, J. R. Cheeseman, G. Scalmani, V. Barone, 
 G. A. Petersson, H. Nakatsuji, X. Li, M. Caricato, A. V. Marenich, 
 J. Bloino, B. G. Janesko, R. Gomperts, B. Mennucci, H. P. Hratchian, 
 J. V. Ortiz, A. F. Izmaylov, J. L. Sonnenberg, D. Williams-Young, 
 F. Ding, F. Lipparini, F. Egidi, J. Goings, B. Peng, A. Petrone, 
 T. Henderson, D. Ranasinghe, V. G. Zakrzewski, J. Gao, N. Rega, 
 G. Zheng, W. Liang, M. Hada, M. Ehara, K. Toyota, R. Fukuda, 
 J. Hasegawa, M. Ishida, T. Nakajima, Y. Honda, O. Kitao, H. Nakai, 
 T. Vreven, K. Throssell, J. A. Montgomery, Jr., J. E. Peralta, 
 F. Ogliaro, M. J. Bearpark, J. J. Heyd, E. N. Brothers, K. N. Kudin, 
 V. N. Staroverov, T. A. Keith, R. Kobayashi, J. Normand, 
 K. Raghavachari, A. P. Rendell, J. C. Burant, S. S. Iyengar, 
 J. Tomasi, M. Cossi, J. M. Millam, M. Klene, C. Adamo, R. Cammi, 
 J. W. Ochterski, R. L. Martin, K. Morokuma, O. Farkas, 
 J. B. Foresman, and D. J. Fox, Gaussian, Inc., Wallingford CT, 2016.
 
 ******************************************
 Gaussian 16:  ES64L-G16RevA.03 25-Dec-2016
                10-Oct-2023 
 ******************************************
 %nproc=10
 Will use up to   10 processors via shared memory.
 %mem=9GB
 %chk=TIFBT6.chk
 -------------------
 #p opt b3lyp/3-21g*
 -------------------
 1/18=20,19=15,26=3,38=1/1,3;
 2/9=110,12=2,17=6,18=5,40=1/2;
 3/5=5,7=1,11=2,25=1,30=1,71=1,74=-5/1,2,3;
 4//1;
 5/5=2,38=5/2;
 6/7=2,8=2,9=2,10=2,28=1/1;
 7//1,2,3,16;
 1/18=20,19=15,26=3/3(2);
 2/9=110/2;
 99//99;
 2/9=110/2;
 3/5=5,7=1,11=2,25=1,30=1,71=1,74=-5/1,2,3;
 4/5=5,16=3,69=1/1;
 5/5=2,38=5/2;
 7//1,2,3,16;
 1/18=20,19=15,26=3/3(-5);
 2/9=110/2;
 6/7=2,8=2,9=2,10=2,19=2,28=1/1;
 99/9=1/99;
 Leave Link    1 at Tue Oct 10 20:20:46 2023, MaxMem=  1207959552 cpu:               0.4 elap:               0.1
 (Enter /opt/apps/chemistry/Gaussian/g16/l101.exe)
 ----------------------------------------------
 Gaussian optimization calculation on oligomer6
 ----------------------------------------------
 Symbolic Z-matrix:
 Charge =  0 Multiplicity = 1
 C                     0.        0.        0. 
 C                    -0.78035   1.17033   0.23065 
 C                    -0.65683  -1.19203  -0.16309 
 N                    -0.31151   2.4121    0.41121 
 N                    -2.8323    2.25417   0.51004 
 S                    -1.63011   3.37048   0.63372 
 H                    -2.551    -2.25411  -0.24363 
 H                    -0.08671  -2.09973  -0.34025 
 C                    -2.08637  -1.28159  -0.10705 
 C                    -2.22789   1.07964   0.2874 
 C                    -2.8719   -0.17992   0.11259 
 H                    -3.95422  -0.23937   0.1564 
 C                     16.69869  -0.58905   0.2137 
 C                     16.03658   0.54017   0.53904 
 S                     15.6249  -1.93532  -0.17009 
 C                     9.91436   0.74861   0.61212 
 C                     10.44626  -0.50026   0.2526 
 C                     9.60484  -1.58905  -0.05824 
 C                     8.22997  -1.40982  -0.00413 
 C                     7.6981   -0.161     0.35554 
 C                     8.53952   0.92777   0.66643 
 C                     7.11206  -2.42932  -0.29491 
 C                     5.86758  -1.59346  -0.05223 
 C                     6.23483  -0.26941   0.32726 
 C                     11.03219   1.76832   0.90223 
 C                     12.2767   0.93243   0.65984 
 C                     11.90952  -0.39177   0.28082 
 C                     4.5387   -1.97864  -0.16022 
 C                     3.54037  -1.0348    0.11284 
 C                     3.92904   0.28342   0.49084 
 C                     5.27165   0.68126   0.60246 
 C                     13.60553   1.3178    0.7674 
 C                     14.60393   0.37397   0.49456 
 C                     14.21538  -0.94454   0.11753 
 C                     12.87282  -1.34256   0.0063 
 C                     7.23992  -3.63045   0.67454 
 C                     7.10117  -2.92702  -1.75201 
 C                     11.04335   2.26558   2.35955 
 C                     10.90405   2.96973  -0.06678 
 H                     8.12463   1.88734   0.94304 
 H                     10.01974  -2.54876  -0.33435 
 H                     13.89413   2.32966   1.05694 
 H                     12.59584  -2.35601  -0.28347 
 H                     4.25002  -2.9903   -0.45035 
 H                     5.54873   1.6944    0.89322 
 H                     8.16866  -4.18414   0.53629 
 H                     6.39938  -4.32392   0.49818 
 H                     7.24839  -3.29943   1.71389 
 H                     7.01049  -2.09052  -2.45616 
 H                     6.25814  -3.60887  -1.96717 
 H                     8.02732  -3.46921  -1.93138 
 H                     9.97563   3.52363   0.0724 
 H                     10.89471   2.63899  -1.10624 
 H                     11.7449   3.66286   0.10933 
 H                     10.11687   2.80696   2.53955 
 H                     11.88596   2.94799   2.57466 
 H                     11.13499   1.42893   3.06348 
 H                     1.60792  -2.13344  -0.19937 
 H                     16.53625   1.47309   0.80545 
 S                     2.51955   1.27438   0.77813 
 C                     2.10768  -1.20073   0.06772 
 C                     1.44566  -0.07164   0.39362 
 C                     21.06204  -0.23937   0.1564 
 C                     20.27474   0.8977    0.50141 
 C                     20.41073  -1.40047  -0.17009 
 N                     20.73759   2.10682   0.84522 
 N                     18.21492   1.94805   0.84375 
 S                     19.41257   3.03659   1.13942 
 H                     18.52007  -2.43765  -0.43852 
 H                     20.98621  -2.28245  -0.43708 
 C                     18.98012  -1.49051  -0.17093 
 C                     18.82612   0.80653   0.50057 
 C                     18.18799  -0.42025   0.15472 
 C                     37.76635   1.08794   0.58224 
 C                     36.96775   2.13274   0.88225 
 S                     36.86868  -0.36962   0.1551 
 C                     30.86348   1.64306   0.71386 
 C                     31.54777   0.46476   0.37444 
 C                     30.84861  -0.71096   0.02961 
 C                     29.46122  -0.68958   0.02959 
 C                     28.77695   0.48866   0.36916 
 C                     29.47611   1.66438   0.71405 
 C                     28.47889  -1.82803  -0.30604 
 C                     27.1388  -1.14048  -0.11187 
 C                     27.33777   0.21468   0.28306 
 C                     31.84572   2.7817    1.04883 
 C                     33.18584   2.09412   0.85496 
 C                     32.98693   0.73883   0.46049 
 C                     25.86767  -1.67372  -0.27259 
 C                     24.75845  -0.85105  -0.03825 
 C                     24.97941   0.50075   0.35604 
 C                     26.26258   1.04811   0.52093 
 C                     34.45691   2.62756   1.01523 
 C                     35.56619   1.80491   0.78112 
 C                     35.34535   0.45282   0.3878 
 C                     34.06223  -0.09471   0.2233 
 C                     28.70469  -3.01206   0.66657 
 C                     28.58174  -2.31582  -1.76291 
 C                     31.74319   3.26909   2.50592 
 C                     31.61959   3.96598   0.07665 
 H                     28.94416   2.56901   0.97497 
 H                     31.38057  -1.61574  -0.23082 
 H                     34.61687   3.66409   1.31689 
 H                     33.914   -1.1315   -0.07813 
 H                     25.70764  -2.71006  -0.57484 
 H                     26.41091   2.08459   0.82336 
 H                     29.69514  -3.45577   0.56455 
 H                     27.95613  -3.79567   0.45652 
 H                     28.63478  -2.68788   1.70575 
 H                     28.42399  -1.49125  -2.4693 
 H                     27.83089  -3.08796  -2.01181 
 H                     29.5699  -2.74816  -1.9061 
 H                     30.62941   4.40992   0.1796 
 H                     31.68862   3.64198  -0.96268 
 H                     32.36851   4.74929   0.28645 
 H                     30.75476   3.70058   2.64973 
 H                     32.49355   4.04173   2.75476 
 H                     31.9019   2.44448   3.21212 
 H                     22.97737  -2.16066  -0.42751 
 H                     37.34714   3.11498   1.16906 
 S                     23.45609   1.32337   0.58841 
 C                     23.35684  -1.17863  -0.14004 
 C                     22.55832  -0.13395   0.16055 
 H                     38.8468   1.07246   0.58224 
 
 ITRead=  0  0  0  0  0  0  0  0  0  0  0  0  0  0  0  0  0  0  0  0
 ITRead=  0  0  0  0  0  0  0  0  0  0  0  0  0  0  0  0  0  0  0  0
 ITRead=  0  0  0  0  0  0  0  0  0  0  0  0  0  0  0  0  0  0  0  0
 ITRead=  0  0  0  0  0  0  0  0  0  0  0  0  0  0  0  0  0  0  0  0
 ITRead=  0  0  0  0  0  0  0  0  0  0  0  0  0  0  0  0  0  0  0  0
 ITRead=  0  0  0  0  0  0  0  0  0  0  0  0  0  0  0  0  0  0  0  0
 ITRead=  0  0  0  0
 MicOpt= -1 -1 -1 -1 -1 -1 -1 -1 -1 -1 -1 -1 -1 -1 -1 -1 -1 -1 -1 -1
 MicOpt= -1 -1 -1 -1 -1 -1 -1 -1 -1 -1 -1 -1 -1 -1 -1 -1 -1 -1 -1 -1
 MicOpt= -1 -1 -1 -1 -1 -1 -1 -1 -1 -1 -1 -1 -1 -1 -1 -1 -1 -1 -1 -1
 MicOpt= -1 -1 -1 -1 -1 -1 -1 -1 -1 -1 -1 -1 -1 -1 -1 -1 -1 -1 -1 -1
 MicOpt= -1 -1 -1 -1 -1 -1 -1 -1 -1 -1 -1 -1 -1 -1 -1 -1 -1 -1 -1 -1
 MicOpt= -1 -1 -1 -1 -1 -1 -1 -1 -1 -1 -1 -1 -1 -1 -1 -1 -1 -1 -1 -1
 MicOpt= -1 -1 -1 -1
 NAtoms=    124 NQM=      124 NQMF=       0 NMMI=      0 NMMIF=      0
                NMic=       0 NMicF=      0.
                    Isotopes and Nuclear Properties:
 (Nuclear quadrupole moments (NQMom) in fm**2, nuclear magnetic moments (NMagM)
  in nuclear magnetons)

  Atom         1           2           3           4           5           6           7           8           9          10
 IAtWgt=          12          12          12          14          14          32           1           1          12          12
 AtmWgt=  12.0000000  12.0000000  12.0000000  14.0030740  14.0030740  31.9720718   1.0078250   1.0078250  12.0000000  12.0000000
 NucSpn=           0           0           0           2           2           0           1           1           0           0
 AtZEff=  -0.0000000  -0.0000000  -0.0000000  -0.0000000  -0.0000000  -0.0000000  -0.0000000  -0.0000000  -0.0000000  -0.0000000
 NQMom=    0.0000000   0.0000000   0.0000000   2.0440000   2.0440000   0.0000000   0.0000000   0.0000000   0.0000000   0.0000000
 NMagM=    0.0000000   0.0000000   0.0000000   0.4037610   0.4037610   0.0000000   2.7928460   2.7928460   0.0000000   0.0000000
 AtZNuc=   6.0000000   6.0000000   6.0000000   7.0000000   7.0000000  16.0000000   1.0000000   1.0000000   6.0000000   6.0000000

  Atom        11          12          13          14          15          16          17          18          19          20
 IAtWgt=          12           1          12          12          32          12          12          12          12          12
 AtmWgt=  12.0000000   1.0078250  12.0000000  12.0000000  31.9720718  12.0000000  12.0000000  12.0000000  12.0000000  12.0000000
 NucSpn=           0           1           0           0           0           0           0           0           0           0
 AtZEff=  -0.0000000  -0.0000000  -0.0000000  -0.0000000  -0.0000000  -0.0000000  -0.0000000  -0.0000000  -0.0000000  -0.0000000
 NQMom=    0.0000000   0.0000000   0.0000000   0.0000000   0.0000000   0.0000000   0.0000000   0.0000000   0.0000000   0.0000000
 NMagM=    0.0000000   2.7928460   0.0000000   0.0000000   0.0000000   0.0000000   0.0000000   0.0000000   0.0000000   0.0000000
 AtZNuc=   6.0000000   1.0000000   6.0000000   6.0000000  16.0000000   6.0000000   6.0000000   6.0000000   6.0000000   6.0000000

  Atom        21          22          23          24          25          26          27          28          29          30
 IAtWgt=          12          12          12          12          12          12          12          12          12          12
 AtmWgt=  12.0000000  12.0000000  12.0000000  12.0000000  12.0000000  12.0000000  12.0000000  12.0000000  12.0000000  12.0000000
 NucSpn=           0           0           0           0           0           0           0           0           0           0
 AtZEff=  -0.0000000  -0.0000000  -0.0000000  -0.0000000  -0.0000000  -0.0000000  -0.0000000  -0.0000000  -0.0000000  -0.0000000
 NQMom=    0.0000000   0.0000000   0.0000000   0.0000000   0.0000000   0.0000000   0.0000000   0.0000000   0.0000000   0.0000000
 NMagM=    0.0000000   0.0000000   0.0000000   0.0000000   0.0000000   0.0000000   0.0000000   0.0000000   0.0000000   0.0000000
 AtZNuc=   6.0000000   6.0000000   6.0000000   6.0000000   6.0000000   6.0000000   6.0000000   6.0000000   6.0000000   6.0000000

  Atom        31          32          33          34          35          36          37          38          39          40
 IAtWgt=          12          12          12          12          12          12          12          12          12           1
 AtmWgt=  12.0000000  12.0000000  12.0000000  12.0000000  12.0000000  12.0000000  12.0000000  12.0000000  12.0000000   1.0078250
 NucSpn=           0           0           0           0           0           0           0           0           0           1
 AtZEff=  -0.0000000  -0.0000000  -0.0000000  -0.0000000  -0.0000000  -0.0000000  -0.0000000  -0.0000000  -0.0000000  -0.0000000
 NQMom=    0.0000000   0.0000000   0.0000000   0.0000000   0.0000000   0.0000000   0.0000000   0.0000000   0.0000000   0.0000000
 NMagM=    0.0000000   0.0000000   0.0000000   0.0000000   0.0000000   0.0000000   0.0000000   0.0000000   0.0000000   2.7928460
 AtZNuc=   6.0000000   6.0000000   6.0000000   6.0000000   6.0000000   6.0000000   6.0000000   6.0000000   6.0000000   1.0000000

  Atom        41          42          43          44          45          46          47          48          49          50
 IAtWgt=           1           1           1           1           1           1           1           1           1           1
 AtmWgt=   1.0078250   1.0078250   1.0078250   1.0078250   1.0078250   1.0078250   1.0078250   1.0078250   1.0078250   1.0078250
 NucSpn=           1           1           1           1           1           1           1           1           1           1
 AtZEff=  -0.0000000  -0.0000000  -0.0000000  -0.0000000  -0.0000000  -0.0000000  -0.0000000  -0.0000000  -0.0000000  -0.0000000
 NQMom=    0.0000000   0.0000000   0.0000000   0.0000000   0.0000000   0.0000000   0.0000000   0.0000000   0.0000000   0.0000000
 NMagM=    2.7928460   2.7928460   2.7928460   2.7928460   2.7928460   2.7928460   2.7928460   2.7928460   2.7928460   2.7928460
 AtZNuc=   1.0000000   1.0000000   1.0000000   1.0000000   1.0000000   1.0000000   1.0000000   1.0000000   1.0000000   1.0000000

  Atom        51          52          53          54          55          56          57          58          59          60
 IAtWgt=           1           1           1           1           1           1           1           1           1          32
 AtmWgt=   1.0078250   1.0078250   1.0078250   1.0078250   1.0078250   1.0078250   1.0078250   1.0078250   1.0078250  31.9720718
 NucSpn=           1           1           1           1           1           1           1           1           1           0
 AtZEff=  -0.0000000  -0.0000000  -0.0000000  -0.0000000  -0.0000000  -0.0000000  -0.0000000  -0.0000000  -0.0000000  -0.0000000
 NQMom=    0.0000000   0.0000000   0.0000000   0.0000000   0.0000000   0.0000000   0.0000000   0.0000000   0.0000000   0.0000000
 NMagM=    2.7928460   2.7928460   2.7928460   2.7928460   2.7928460   2.7928460   2.7928460   2.7928460   2.7928460   0.0000000
 AtZNuc=   1.0000000   1.0000000   1.0000000   1.0000000   1.0000000   1.0000000   1.0000000   1.0000000   1.0000000  16.0000000

  Atom        61          62          63          64          65          66          67          68          69          70
 IAtWgt=          12          12          12          12          12          14          14          32           1           1
 AtmWgt=  12.0000000  12.0000000  12.0000000  12.0000000  12.0000000  14.0030740  14.0030740  31.9720718   1.0078250   1.0078250
 NucSpn=           0           0           0           0           0           2           2           0           1           1
 AtZEff=  -0.0000000  -0.0000000  -0.0000000  -0.0000000  -0.0000000  -0.0000000  -0.0000000  -0.0000000  -0.0000000  -0.0000000
 NQMom=    0.0000000   0.0000000   0.0000000   0.0000000   0.0000000   2.0440000   2.0440000   0.0000000   0.0000000   0.0000000
 NMagM=    0.0000000   0.0000000   0.0000000   0.0000000   0.0000000   0.4037610   0.4037610   0.0000000   2.7928460   2.7928460
 AtZNuc=   6.0000000   6.0000000   6.0000000   6.0000000   6.0000000   7.0000000   7.0000000  16.0000000   1.0000000   1.0000000

  Atom        71          72          73          74          75          76          77          78          79          80
 IAtWgt=          12          12          12          12          12          32          12          12          12          12
 AtmWgt=  12.0000000  12.0000000  12.0000000  12.0000000  12.0000000  31.9720718  12.0000000  12.0000000  12.0000000  12.0000000
 NucSpn=           0           0           0           0           0           0           0           0           0           0
 AtZEff=  -0.0000000  -0.0000000  -0.0000000  -0.0000000  -0.0000000  -0.0000000  -0.0000000  -0.0000000  -0.0000000  -0.0000000
 NQMom=    0.0000000   0.0000000   0.0000000   0.0000000   0.0000000   0.0000000   0.0000000   0.0000000   0.0000000   0.0000000
 NMagM=    0.0000000   0.0000000   0.0000000   0.0000000   0.0000000   0.0000000   0.0000000   0.0000000   0.0000000   0.0000000
 AtZNuc=   6.0000000   6.0000000   6.0000000   6.0000000   6.0000000  16.0000000   6.0000000   6.0000000   6.0000000   6.0000000

  Atom        81          82          83          84          85          86          87          88          89          90
 IAtWgt=          12          12          12          12          12          12          12          12          12          12
 AtmWgt=  12.0000000  12.0000000  12.0000000  12.0000000  12.0000000  12.0000000  12.0000000  12.0000000  12.0000000  12.0000000
 NucSpn=           0           0           0           0           0           0           0           0           0           0
 AtZEff=  -0.0000000  -0.0000000  -0.0000000  -0.0000000  -0.0000000  -0.0000000  -0.0000000  -0.0000000  -0.0000000  -0.0000000
 NQMom=    0.0000000   0.0000000   0.0000000   0.0000000   0.0000000   0.0000000   0.0000000   0.0000000   0.0000000   0.0000000
 NMagM=    0.0000000   0.0000000   0.0000000   0.0000000   0.0000000   0.0000000   0.0000000   0.0000000   0.0000000   0.0000000
 AtZNuc=   6.0000000   6.0000000   6.0000000   6.0000000   6.0000000   6.0000000   6.0000000   6.0000000   6.0000000   6.0000000

  Atom        91          92          93          94          95          96          97          98          99         100
 IAtWgt=          12          12          12          12          12          12          12          12          12          12
 AtmWgt=  12.0000000  12.0000000  12.0000000  12.0000000  12.0000000  12.0000000  12.0000000  12.0000000  12.0000000  12.0000000
 NucSpn=           0           0           0           0           0           0           0           0           0           0
 AtZEff=  -0.0000000  -0.0000000  -0.0000000  -0.0000000  -0.0000000  -0.0000000  -0.0000000  -0.0000000  -0.0000000  -0.0000000
 NQMom=    0.0000000   0.0000000   0.0000000   0.0000000   0.0000000   0.0000000   0.0000000   0.0000000   0.0000000   0.0000000
 NMagM=    0.0000000   0.0000000   0.0000000   0.0000000   0.0000000   0.0000000   0.0000000   0.0000000   0.0000000   0.0000000
 AtZNuc=   6.0000000   6.0000000   6.0000000   6.0000000   6.0000000   6.0000000   6.0000000   6.0000000   6.0000000   6.0000000

  Atom       101         102         103         104         105         106         107         108         109         110
 IAtWgt=           1           1           1           1           1           1           1           1           1           1
 AtmWgt=   1.0078250   1.0078250   1.0078250   1.0078250   1.0078250   1.0078250   1.0078250   1.0078250   1.0078250   1.0078250
 NucSpn=           1           1           1           1           1           1           1           1           1           1
 AtZEff=  -0.0000000  -0.0000000  -0.0000000  -0.0000000  -0.0000000  -0.0000000  -0.0000000  -0.0000000  -0.0000000  -0.0000000
 NQMom=    0.0000000   0.0000000   0.0000000   0.0000000   0.0000000   0.0000000   0.0000000   0.0000000   0.0000000   0.0000000
 NMagM=    2.7928460   2.7928460   2.7928460   2.7928460   2.7928460   2.7928460   2.7928460   2.7928460   2.7928460   2.7928460
 AtZNuc=   1.0000000   1.0000000   1.0000000   1.0000000   1.0000000   1.0000000   1.0000000   1.0000000   1.0000000   1.0000000

  Atom       111         112         113         114         115         116         117         118         119         120
 IAtWgt=           1           1           1           1           1           1           1           1           1           1
 AtmWgt=   1.0078250   1.0078250   1.0078250   1.0078250   1.0078250   1.0078250   1.0078250   1.0078250   1.0078250   1.0078250
 NucSpn=           1           1           1           1           1           1           1           1           1           1
 AtZEff=  -0.0000000  -0.0000000  -0.0000000  -0.0000000  -0.0000000  -0.0000000  -0.0000000  -0.0000000  -0.0000000  -0.0000000
 NQMom=    0.0000000   0.0000000   0.0000000   0.0000000   0.0000000   0.0000000   0.0000000   0.0000000   0.0000000   0.0000000
 NMagM=    2.7928460   2.7928460   2.7928460   2.7928460   2.7928460   2.7928460   2.7928460   2.7928460   2.7928460   2.7928460
 AtZNuc=   1.0000000   1.0000000   1.0000000   1.0000000   1.0000000   1.0000000   1.0000000   1.0000000   1.0000000   1.0000000

  Atom       121         122         123         124
 IAtWgt=          32          12          12           1
 AtmWgt=  31.9720718  12.0000000  12.0000000   1.0078250
 NucSpn=           0           0           0           1
 AtZEff=  -0.0000000  -0.0000000  -0.0000000  -0.0000000
 NQMom=    0.0000000   0.0000000   0.0000000   0.0000000
 NMagM=    0.0000000   0.0000000   0.0000000   2.7928460
 AtZNuc=  16.0000000   6.0000000   6.0000000   1.0000000
 Leave Link  101 at Tue Oct 10 20:20:47 2023, MaxMem=  1207959552 cpu:               4.9 elap:               0.5
 (Enter /opt/apps/chemistry/Gaussian/g16/l103.exe)

 GradGradGradGradGradGradGradGradGradGradGradGradGradGradGradGradGradGrad
 Berny optimization.
 Initialization pass.
                           ----------------------------
                           !    Initial Parameters    !
                           ! (Angstroms and Degrees)  !
 --------------------------                            --------------------------
 ! Name  Definition              Value          Derivative Info.                !
 --------------------------------------------------------------------------------
 ! R1    R(1,2)                  1.4254         estimate D2E/DX2                !
 ! R2    R(1,3)                  1.3707         estimate D2E/DX2                !
 ! R3    R(1,62)                 1.5            estimate D2E/DX2                !
 ! R4    R(2,4)                  1.3396         estimate D2E/DX2                !
 ! R5    R(2,10)                 1.4515         estimate D2E/DX2                !
 ! R6    R(3,8)                  1.0864         estimate D2E/DX2                !
 ! R7    R(3,9)                  1.4334         estimate D2E/DX2                !
 ! R8    R(4,6)                  1.6452         estimate D2E/DX2                !
 ! R9    R(5,6)                  1.6452         estimate D2E/DX2                !
 ! R10   R(5,10)                 1.3395         estimate D2E/DX2                !
 ! R11   R(7,9)                  1.0864         estimate D2E/DX2                !
 ! R12   R(9,11)                 1.3708         estimate D2E/DX2                !
 ! R13   R(10,11)                1.4254         estimate D2E/DX2                !
 ! R14   R(11,12)                1.0848         estimate D2E/DX2                !
 ! R15   R(13,14)                1.3488         estimate D2E/DX2                !
 ! R16   R(13,15)                1.7643         estimate D2E/DX2                !
 ! R17   R(13,73)                1.5            estimate D2E/DX2                !
 ! R18   R(14,33)                1.4429         estimate D2E/DX2                !
 ! R19   R(14,59)                1.0913         estimate D2E/DX2                !
 ! R20   R(15,34)                1.7467         estimate D2E/DX2                !
 ! R21   R(16,17)                1.4042         estimate D2E/DX2                !
 ! R22   R(16,21)                1.3875         estimate D2E/DX2                !
 ! R23   R(16,25)                1.5406         estimate D2E/DX2                !
 ! R24   R(17,18)                1.4107         estimate D2E/DX2                !
 ! R25   R(17,27)                1.4675         estimate D2E/DX2                !
 ! R26   R(18,19)                1.3876         estimate D2E/DX2                !
 ! R27   R(18,41)                1.0814         estimate D2E/DX2                !
 ! R28   R(19,20)                1.4042         estimate D2E/DX2                !
 ! R29   R(19,22)                1.5407         estimate D2E/DX2                !
 ! R30   R(20,21)                1.4107         estimate D2E/DX2                !
 ! R31   R(20,24)                1.4676         estimate D2E/DX2                !
 ! R32   R(21,40)                1.0814         estimate D2E/DX2                !
 ! R33   R(22,23)                1.5186         estimate D2E/DX2                !
 ! R34   R(22,36)                1.5488         estimate D2E/DX2                !
 ! R35   R(22,37)                1.5398         estimate D2E/DX2                !
 ! R36   R(23,24)                1.4255         estimate D2E/DX2                !
 ! R37   R(23,28)                1.3878         estimate D2E/DX2                !
 ! R38   R(24,31)                1.381          estimate D2E/DX2                !
 ! R39   R(25,26)                1.5186         estimate D2E/DX2                !
 ! R40   R(25,38)                1.5399         estimate D2E/DX2                !
 ! R41   R(25,39)                1.5488         estimate D2E/DX2                !
 ! R42   R(26,27)                1.4255         estimate D2E/DX2                !
 ! R43   R(26,32)                1.3878         estimate D2E/DX2                !
 ! R44   R(27,35)                1.3811         estimate D2E/DX2                !
 ! R45   R(28,29)                1.4007         estimate D2E/DX2                !
 ! R46   R(28,44)                1.0913         estimate D2E/DX2                !
 ! R47   R(29,30)                1.4254         estimate D2E/DX2                !
 ! R48   R(29,61)                1.443          estimate D2E/DX2                !
 ! R49   R(30,31)                1.4047         estimate D2E/DX2                !
 ! R50   R(30,60)                1.7468         estimate D2E/DX2                !
 ! R51   R(31,45)                1.0898         estimate D2E/DX2                !
 ! R52   R(32,33)                1.4007         estimate D2E/DX2                !
 ! R53   R(32,42)                1.0913         estimate D2E/DX2                !
 ! R54   R(33,34)                1.4253         estimate D2E/DX2                !
 ! R55   R(34,35)                1.4047         estimate D2E/DX2                !
 ! R56   R(35,43)                1.0898         estimate D2E/DX2                !
 ! R57   R(36,46)                1.0901         estimate D2E/DX2                !
 ! R58   R(36,47)                1.1039         estimate D2E/DX2                !
 ! R59   R(36,48)                1.0908         estimate D2E/DX2                !
 ! R60   R(37,49)                1.0972         estimate D2E/DX2                !
 ! R61   R(37,50)                1.1054         estimate D2E/DX2                !
 ! R62   R(37,51)                1.0881         estimate D2E/DX2                !
 ! R63   R(38,55)                1.088          estimate D2E/DX2                !
 ! R64   R(38,56)                1.1054         estimate D2E/DX2                !
 ! R65   R(38,57)                1.0972         estimate D2E/DX2                !
 ! R66   R(39,52)                1.09           estimate D2E/DX2                !
 ! R67   R(39,53)                1.0909         estimate D2E/DX2                !
 ! R68   R(39,54)                1.1038         estimate D2E/DX2                !
 ! R69   R(58,61)                1.0913         estimate D2E/DX2                !
 ! R70   R(60,62)                1.7643         estimate D2E/DX2                !
 ! R71   R(61,62)                1.3488         estimate D2E/DX2                !
 ! R72   R(63,64)                1.4254         estimate D2E/DX2                !
 ! R73   R(63,65)                1.3707         estimate D2E/DX2                !
 ! R74   R(63,123)               1.5            estimate D2E/DX2                !
 ! R75   R(64,66)                1.3396         estimate D2E/DX2                !
 ! R76   R(64,72)                1.4515         estimate D2E/DX2                !
 ! R77   R(65,70)                1.0864         estimate D2E/DX2                !
 ! R78   R(65,71)                1.4334         estimate D2E/DX2                !
 ! R79   R(66,68)                1.6452         estimate D2E/DX2                !
 ! R80   R(67,68)                1.6452         estimate D2E/DX2                !
 ! R81   R(67,72)                1.3395         estimate D2E/DX2                !
 ! R82   R(69,71)                1.0864         estimate D2E/DX2                !
 ! R83   R(71,73)                1.3708         estimate D2E/DX2                !
 ! R84   R(72,73)                1.4254         estimate D2E/DX2                !
 ! R85   R(74,75)                1.3488         estimate D2E/DX2                !
 ! R86   R(74,76)                1.7643         estimate D2E/DX2                !
 ! R87   R(74,124)               1.0806         estimate D2E/DX2                !
 ! R88   R(75,94)                1.4429         estimate D2E/DX2                !
 ! R89   R(75,120)               1.0913         estimate D2E/DX2                !
 ! R90   R(76,95)                1.7467         estimate D2E/DX2                !
 ! R91   R(77,78)                1.4042         estimate D2E/DX2                !
 ! R92   R(77,82)                1.3875         estimate D2E/DX2                !
 ! R93   R(77,86)                1.5406         estimate D2E/DX2                !
 ! R94   R(78,79)                1.4107         estimate D2E/DX2                !
 ! R95   R(78,88)                1.4675         estimate D2E/DX2                !
 ! R96   R(79,80)                1.3876         estimate D2E/DX2                !
 ! R97   R(79,102)               1.0814         estimate D2E/DX2                !
 ! R98   R(80,81)                1.4042         estimate D2E/DX2                !
 ! R99   R(80,83)                1.5407         estimate D2E/DX2                !
 ! R100  R(81,82)                1.4107         estimate D2E/DX2                !
 ! R101  R(81,85)                1.4676         estimate D2E/DX2                !
 ! R102  R(82,101)               1.0814         estimate D2E/DX2                !
 ! R103  R(83,84)                1.5186         estimate D2E/DX2                !
 ! R104  R(83,97)                1.5488         estimate D2E/DX2                !
 ! R105  R(83,98)                1.5398         estimate D2E/DX2                !
 ! R106  R(84,85)                1.4255         estimate D2E/DX2                !
 ! R107  R(84,89)                1.3878         estimate D2E/DX2                !
 ! R108  R(85,92)                1.381          estimate D2E/DX2                !
 ! R109  R(86,87)                1.5186         estimate D2E/DX2                !
 ! R110  R(86,99)                1.5399         estimate D2E/DX2                !
 ! R111  R(86,100)               1.5488         estimate D2E/DX2                !
 ! R112  R(87,88)                1.4255         estimate D2E/DX2                !
 ! R113  R(87,93)                1.3878         estimate D2E/DX2                !
 ! R114  R(88,96)                1.3811         estimate D2E/DX2                !
 ! R115  R(89,90)                1.4007         estimate D2E/DX2                !
 ! R116  R(89,105)               1.0913         estimate D2E/DX2                !
 ! R117  R(90,91)                1.4254         estimate D2E/DX2                !
 ! R118  R(90,122)               1.443          estimate D2E/DX2                !
 ! R119  R(91,92)                1.4047         estimate D2E/DX2                !
 ! R120  R(91,121)               1.7468         estimate D2E/DX2                !
 ! R121  R(92,106)               1.0898         estimate D2E/DX2                !
 ! R122  R(93,94)                1.4007         estimate D2E/DX2                !
 ! R123  R(93,103)               1.0913         estimate D2E/DX2                !
 ! R124  R(94,95)                1.4253         estimate D2E/DX2                !
 ! R125  R(95,96)                1.4047         estimate D2E/DX2                !
 ! R126  R(96,104)               1.0898         estimate D2E/DX2                !
 ! R127  R(97,107)               1.0901         estimate D2E/DX2                !
 ! R128  R(97,108)               1.1039         estimate D2E/DX2                !
 ! R129  R(97,109)               1.0908         estimate D2E/DX2                !
 ! R130  R(98,110)               1.0972         estimate D2E/DX2                !
 ! R131  R(98,111)               1.1054         estimate D2E/DX2                !
 ! R132  R(98,112)               1.0881         estimate D2E/DX2                !
 ! R133  R(99,116)               1.088          estimate D2E/DX2                !
 ! R134  R(99,117)               1.1054         estimate D2E/DX2                !
 ! R135  R(99,118)               1.0972         estimate D2E/DX2                !
 ! R136  R(100,113)              1.09           estimate D2E/DX2                !
 ! R137  R(100,114)              1.0909         estimate D2E/DX2                !
 ! R138  R(100,115)              1.1038         estimate D2E/DX2                !
 ! R139  R(119,122)              1.0913         estimate D2E/DX2                !
 ! R140  R(121,123)              1.7643         estimate D2E/DX2                !
 ! R141  R(122,123)              1.3488         estimate D2E/DX2                !
 ! A1    A(2,1,3)              118.094          estimate D2E/DX2                !
 ! A2    A(2,1,62)             121.6261         estimate D2E/DX2                !
 ! A3    A(3,1,62)             116.8402         estimate D2E/DX2                !
 ! A4    A(1,2,4)              126.2504         estimate D2E/DX2                !
 ! A5    A(1,2,10)             120.0658         estimate D2E/DX2                !
 ! A6    A(4,2,10)             113.6838         estimate D2E/DX2                !
 ! A7    A(1,3,8)              119.6369         estimate D2E/DX2                !
 ! A8    A(1,3,9)              121.8405         estimate D2E/DX2                !
 ! A9    A(8,3,9)              118.5227         estimate D2E/DX2                !
 ! A10   A(2,4,6)              106.1244         estimate D2E/DX2                !
 ! A11   A(6,5,10)             106.1244         estimate D2E/DX2                !
 ! A12   A(4,6,5)              100.3833         estimate D2E/DX2                !
 ! A13   A(3,9,7)              118.5234         estimate D2E/DX2                !
 ! A14   A(3,9,11)             121.8399         estimate D2E/DX2                !
 ! A15   A(7,9,11)             119.6366         estimate D2E/DX2                !
 ! A16   A(2,10,5)             113.6841         estimate D2E/DX2                !
 ! A17   A(2,10,11)            120.0656         estimate D2E/DX2                !
 ! A18   A(5,10,11)            126.2502         estimate D2E/DX2                !
 ! A19   A(9,11,10)            118.0942         estimate D2E/DX2                !
 ! A20   A(9,11,12)            122.2867         estimate D2E/DX2                !
 ! A21   A(10,11,12)           119.6191         estimate D2E/DX2                !
 ! A22   A(14,13,15)           113.1121         estimate D2E/DX2                !
 ! A23   A(14,13,73)           113.7436         estimate D2E/DX2                !
 ! A24   A(15,13,73)           132.9686         estimate D2E/DX2                !
 ! A25   A(13,14,33)           112.5514         estimate D2E/DX2                !
 ! A26   A(13,14,59)           123.3527         estimate D2E/DX2                !
 ! A27   A(33,14,59)           124.0959         estimate D2E/DX2                !
 ! A28   A(13,15,34)            91.2882         estimate D2E/DX2                !
 ! A29   A(17,16,21)           120.0117         estimate D2E/DX2                !
 ! A30   A(17,16,25)           111.2251         estimate D2E/DX2                !
 ! A31   A(21,16,25)           128.7632         estimate D2E/DX2                !
 ! A32   A(16,17,18)           121.1249         estimate D2E/DX2                !
 ! A33   A(16,17,27)           107.8786         estimate D2E/DX2                !
 ! A34   A(18,17,27)           130.9964         estimate D2E/DX2                !
 ! A35   A(17,18,19)           118.863          estimate D2E/DX2                !
 ! A36   A(17,18,41)           120.8219         estimate D2E/DX2                !
 ! A37   A(19,18,41)           120.315          estimate D2E/DX2                !
 ! A38   A(18,19,20)           120.0112         estimate D2E/DX2                !
 ! A39   A(18,19,22)           128.7654         estimate D2E/DX2                !
 ! A40   A(20,19,22)           111.2234         estimate D2E/DX2                !
 ! A41   A(19,20,21)           121.1262         estimate D2E/DX2                !
 ! A42   A(19,20,24)           107.8806         estimate D2E/DX2                !
 ! A43   A(21,20,24)           130.9932         estimate D2E/DX2                !
 ! A44   A(16,21,20)           118.8629         estimate D2E/DX2                !
 ! A45   A(16,21,40)           120.3139         estimate D2E/DX2                !
 ! A46   A(20,21,40)           120.8232         estimate D2E/DX2                !
 ! A47   A(19,22,23)           101.5507         estimate D2E/DX2                !
 ! A48   A(19,22,36)           109.5811         estimate D2E/DX2                !
 ! A49   A(19,22,37)           113.429          estimate D2E/DX2                !
 ! A50   A(23,22,36)           113.2326         estimate D2E/DX2                !
 ! A51   A(23,22,37)           108.8643         estimate D2E/DX2                !
 ! A52   A(36,22,37)           110.0126         estimate D2E/DX2                !
 ! A53   A(22,23,24)           110.0386         estimate D2E/DX2                !
 ! A54   A(22,23,28)           128.2788         estimate D2E/DX2                !
 ! A55   A(24,23,28)           121.6826         estimate D2E/DX2                !
 ! A56   A(20,24,23)           109.3067         estimate D2E/DX2                !
 ! A57   A(20,24,31)           129.8454         estimate D2E/DX2                !
 ! A58   A(23,24,31)           120.8478         estimate D2E/DX2                !
 ! A59   A(16,25,26)           101.5505         estimate D2E/DX2                !
 ! A60   A(16,25,38)           113.404          estimate D2E/DX2                !
 ! A61   A(16,25,39)           109.6075         estimate D2E/DX2                !
 ! A62   A(26,25,38)           108.8359         estimate D2E/DX2                !
 ! A63   A(26,25,39)           113.2602         estimate D2E/DX2                !
 ! A64   A(38,25,39)           110.012          estimate D2E/DX2                !
 ! A65   A(25,26,27)           110.039          estimate D2E/DX2                !
 ! A66   A(25,26,32)           128.2776         estimate D2E/DX2                !
 ! A67   A(27,26,32)           121.6834         estimate D2E/DX2                !
 ! A68   A(17,27,26)           109.3068         estimate D2E/DX2                !
 ! A69   A(17,27,35)           129.8481         estimate D2E/DX2                !
 ! A70   A(26,27,35)           120.8451         estimate D2E/DX2                !
 ! A71   A(23,28,29)           118.7038         estimate D2E/DX2                !
 ! A72   A(23,28,44)           122.0912         estimate D2E/DX2                !
 ! A73   A(29,28,44)           119.205          estimate D2E/DX2                !
 ! A74   A(28,29,30)           118.7192         estimate D2E/DX2                !
 ! A75   A(28,29,61)           128.613          estimate D2E/DX2                !
 ! A76   A(30,29,61)           112.6678         estimate D2E/DX2                !
 ! A77   A(29,30,31)           122.9302         estimate D2E/DX2                !
 ! A78   A(29,30,60)           110.3802         estimate D2E/DX2                !
 ! A79   A(31,30,60)           126.6896         estimate D2E/DX2                !
 ! A80   A(24,31,30)           117.1163         estimate D2E/DX2                !
 ! A81   A(24,31,45)           121.049          estimate D2E/DX2                !
 ! A82   A(30,31,45)           121.8347         estimate D2E/DX2                !
 ! A83   A(26,32,33)           118.7044         estimate D2E/DX2                !
 ! A84   A(26,32,42)           122.0907         estimate D2E/DX2                !
 ! A85   A(33,32,42)           119.2048         estimate D2E/DX2                !
 ! A86   A(14,33,32)           128.6141         estimate D2E/DX2                !
 ! A87   A(14,33,34)           112.6658         estimate D2E/DX2                !
 ! A88   A(32,33,34)           118.7201         estimate D2E/DX2                !
 ! A89   A(15,34,33)           110.3825         estimate D2E/DX2                !
 ! A90   A(15,34,35)           126.6894         estimate D2E/DX2                !
 ! A91   A(33,34,35)           122.9281         estimate D2E/DX2                !
 ! A92   A(27,35,34)           117.1189         estimate D2E/DX2                !
 ! A93   A(27,35,43)           121.0492         estimate D2E/DX2                !
 ! A94   A(34,35,43)           121.8319         estimate D2E/DX2                !
 ! A95   A(22,36,46)           112.6351         estimate D2E/DX2                !
 ! A96   A(22,36,47)           108.9249         estimate D2E/DX2                !
 ! A97   A(22,36,48)           111.2044         estimate D2E/DX2                !
 ! A98   A(46,36,47)           108.0228         estimate D2E/DX2                !
 ! A99   A(46,36,48)           105.567          estimate D2E/DX2                !
 ! A100  A(47,36,48)           110.4129         estimate D2E/DX2                !
 ! A101  A(22,37,49)           111.1905         estimate D2E/DX2                !
 ! A102  A(22,37,50)           112.8897         estimate D2E/DX2                !
 ! A103  A(22,37,51)           108.1222         estimate D2E/DX2                !
 ! A104  A(49,37,50)           106.3994         estimate D2E/DX2                !
 ! A105  A(49,37,51)           110.1491         estimate D2E/DX2                !
 ! A106  A(50,37,51)           108.0412         estimate D2E/DX2                !
 ! A107  A(25,38,55)           108.124          estimate D2E/DX2                !
 ! A108  A(25,38,56)           112.8947         estimate D2E/DX2                !
 ! A109  A(25,38,57)           111.1943         estimate D2E/DX2                !
 ! A110  A(55,38,56)           108.0419         estimate D2E/DX2                !
 ! A111  A(55,38,57)           110.1441         estimate D2E/DX2                !
 ! A112  A(56,38,57)           106.3927         estimate D2E/DX2                !
 ! A113  A(25,39,52)           112.6294         estimate D2E/DX2                !
 ! A114  A(25,39,53)           111.2042         estimate D2E/DX2                !
 ! A115  A(25,39,54)           108.9195         estimate D2E/DX2                !
 ! A116  A(52,39,53)           105.572          estimate D2E/DX2                !
 ! A117  A(52,39,54)           108.0208         estimate D2E/DX2                !
 ! A118  A(53,39,54)           110.4216         estimate D2E/DX2                !
 ! A119  A(30,60,62)            91.2889         estimate D2E/DX2                !
 ! A120  A(29,61,58)           124.0974         estimate D2E/DX2                !
 ! A121  A(29,61,62)           112.5504         estimate D2E/DX2                !
 ! A122  A(58,61,62)           123.3521         estimate D2E/DX2                !
 ! A123  A(1,62,60)            127.3995         estimate D2E/DX2                !
 ! A124  A(1,62,61)            116.7186         estimate D2E/DX2                !
 ! A125  A(60,62,61)           113.1127         estimate D2E/DX2                !
 ! A126  A(64,63,65)           118.094          estimate D2E/DX2                !
 ! A127  A(64,63,123)          119.6191         estimate D2E/DX2                !
 ! A128  A(65,63,123)          122.2869         estimate D2E/DX2                !
 ! A129  A(63,64,66)           126.2504         estimate D2E/DX2                !
 ! A130  A(63,64,72)           120.0658         estimate D2E/DX2                !
 ! A131  A(66,64,72)           113.6838         estimate D2E/DX2                !
 ! A132  A(63,65,70)           119.6369         estimate D2E/DX2                !
 ! A133  A(63,65,71)           121.8405         estimate D2E/DX2                !
 ! A134  A(70,65,71)           118.5227         estimate D2E/DX2                !
 ! A135  A(64,66,68)           106.1244         estimate D2E/DX2                !
 ! A136  A(68,67,72)           106.1244         estimate D2E/DX2                !
 ! A137  A(66,68,67)           100.3833         estimate D2E/DX2                !
 ! A138  A(65,71,69)           118.5234         estimate D2E/DX2                !
 ! A139  A(65,71,73)           121.8399         estimate D2E/DX2                !
 ! A140  A(69,71,73)           119.6366         estimate D2E/DX2                !
 ! A141  A(64,72,67)           113.6841         estimate D2E/DX2                !
 ! A142  A(64,72,73)           120.0656         estimate D2E/DX2                !
 ! A143  A(67,72,73)           126.2502         estimate D2E/DX2                !
 ! A144  A(13,73,71)           119.6848         estimate D2E/DX2                !
 ! A145  A(13,73,72)           122.1269         estimate D2E/DX2                !
 ! A146  A(71,73,72)           118.0942         estimate D2E/DX2                !
 ! A147  A(75,74,76)           113.1121         estimate D2E/DX2                !
 ! A148  A(75,74,124)          127.0924         estimate D2E/DX2                !
 ! A149  A(76,74,124)          119.7955         estimate D2E/DX2                !
 ! A150  A(74,75,94)           112.5514         estimate D2E/DX2                !
 ! A151  A(74,75,120)          123.3527         estimate D2E/DX2                !
 ! A152  A(94,75,120)          124.0959         estimate D2E/DX2                !
 ! A153  A(74,76,95)            91.2882         estimate D2E/DX2                !
 ! A154  A(78,77,82)           120.0117         estimate D2E/DX2                !
 ! A155  A(78,77,86)           111.2251         estimate D2E/DX2                !
 ! A156  A(82,77,86)           128.7631         estimate D2E/DX2                !
 ! A157  A(77,78,79)           121.1249         estimate D2E/DX2                !
 ! A158  A(77,78,88)           107.8786         estimate D2E/DX2                !
 ! A159  A(79,78,88)           130.9964         estimate D2E/DX2                !
 ! A160  A(78,79,80)           118.8631         estimate D2E/DX2                !
 ! A161  A(78,79,102)          120.8219         estimate D2E/DX2                !
 ! A162  A(80,79,102)          120.315          estimate D2E/DX2                !
 ! A163  A(79,80,81)           120.0112         estimate D2E/DX2                !
 ! A164  A(79,80,83)           128.7654         estimate D2E/DX2                !
 ! A165  A(81,80,83)           111.2234         estimate D2E/DX2                !
 ! A166  A(80,81,82)           121.1262         estimate D2E/DX2                !
 ! A167  A(80,81,85)           107.8806         estimate D2E/DX2                !
 ! A168  A(82,81,85)           130.9932         estimate D2E/DX2                !
 ! A169  A(77,82,81)           118.8629         estimate D2E/DX2                !
 ! A170  A(77,82,101)          120.3139         estimate D2E/DX2                !
 ! A171  A(81,82,101)          120.8232         estimate D2E/DX2                !
 ! A172  A(80,83,84)           101.5507         estimate D2E/DX2                !
 ! A173  A(80,83,97)           109.581          estimate D2E/DX2                !
 ! A174  A(80,83,98)           113.429          estimate D2E/DX2                !
 ! A175  A(84,83,97)           113.2326         estimate D2E/DX2                !
 ! A176  A(84,83,98)           108.8643         estimate D2E/DX2                !
 ! A177  A(97,83,98)           110.0126         estimate D2E/DX2                !
 ! A178  A(83,84,85)           110.0386         estimate D2E/DX2                !
 ! A179  A(83,84,89)           128.2788         estimate D2E/DX2                !
 ! A180  A(85,84,89)           121.6826         estimate D2E/DX2                !
 ! A181  A(81,85,84)           109.3067         estimate D2E/DX2                !
 ! A182  A(81,85,92)           129.8454         estimate D2E/DX2                !
 ! A183  A(84,85,92)           120.8478         estimate D2E/DX2                !
 ! A184  A(77,86,87)           101.5505         estimate D2E/DX2                !
 ! A185  A(77,86,99)           113.404          estimate D2E/DX2                !
 ! A186  A(77,86,100)          109.6075         estimate D2E/DX2                !
 ! A187  A(87,86,99)           108.8359         estimate D2E/DX2                !
 ! A188  A(87,86,100)          113.2602         estimate D2E/DX2                !
 ! A189  A(99,86,100)          110.012          estimate D2E/DX2                !
 ! A190  A(86,87,88)           110.039          estimate D2E/DX2                !
 ! A191  A(86,87,93)           128.2776         estimate D2E/DX2                !
 ! A192  A(88,87,93)           121.6834         estimate D2E/DX2                !
 ! A193  A(78,88,87)           109.3068         estimate D2E/DX2                !
 ! A194  A(78,88,96)           129.8481         estimate D2E/DX2                !
 ! A195  A(87,88,96)           120.8451         estimate D2E/DX2                !
 ! A196  A(84,89,90)           118.7038         estimate D2E/DX2                !
 ! A197  A(84,89,105)          122.0912         estimate D2E/DX2                !
 ! A198  A(90,89,105)          119.205          estimate D2E/DX2                !
 ! A199  A(89,90,91)           118.7192         estimate D2E/DX2                !
 ! A200  A(89,90,122)          128.613          estimate D2E/DX2                !
 ! A201  A(91,90,122)          112.6678         estimate D2E/DX2                !
 ! A202  A(90,91,92)           122.9302         estimate D2E/DX2                !
 ! A203  A(90,91,121)          110.3802         estimate D2E/DX2                !
 ! A204  A(92,91,121)          126.6896         estimate D2E/DX2                !
 ! A205  A(85,92,91)           117.1163         estimate D2E/DX2                !
 ! A206  A(85,92,106)          121.049          estimate D2E/DX2                !
 ! A207  A(91,92,106)          121.8347         estimate D2E/DX2                !
 ! A208  A(87,93,94)           118.7044         estimate D2E/DX2                !
 ! A209  A(87,93,103)          122.0907         estimate D2E/DX2                !
 ! A210  A(94,93,103)          119.2048         estimate D2E/DX2                !
 ! A211  A(75,94,93)           128.6141         estimate D2E/DX2                !
 ! A212  A(75,94,95)           112.6658         estimate D2E/DX2                !
 ! A213  A(93,94,95)           118.7201         estimate D2E/DX2                !
 ! A214  A(76,95,94)           110.3825         estimate D2E/DX2                !
 ! A215  A(76,95,96)           126.6894         estimate D2E/DX2                !
 ! A216  A(94,95,96)           122.9281         estimate D2E/DX2                !
 ! A217  A(88,96,95)           117.1189         estimate D2E/DX2                !
 ! A218  A(88,96,104)          121.0492         estimate D2E/DX2                !
 ! A219  A(95,96,104)          121.8319         estimate D2E/DX2                !
 ! A220  A(83,97,107)          112.6351         estimate D2E/DX2                !
 ! A221  A(83,97,108)          108.9249         estimate D2E/DX2                !
 ! A222  A(83,97,109)          111.2044         estimate D2E/DX2                !
 ! A223  A(107,97,108)         108.0228         estimate D2E/DX2                !
 ! A224  A(107,97,109)         105.567          estimate D2E/DX2                !
 ! A225  A(108,97,109)         110.4129         estimate D2E/DX2                !
 ! A226  A(83,98,110)          111.1905         estimate D2E/DX2                !
 ! A227  A(83,98,111)          112.8897         estimate D2E/DX2                !
 ! A228  A(83,98,112)          108.1222         estimate D2E/DX2                !
 ! A229  A(110,98,111)         106.3994         estimate D2E/DX2                !
 ! A230  A(110,98,112)         110.1491         estimate D2E/DX2                !
 ! A231  A(111,98,112)         108.0412         estimate D2E/DX2                !
 ! A232  A(86,99,116)          108.124          estimate D2E/DX2                !
 ! A233  A(86,99,117)          112.8947         estimate D2E/DX2                !
 ! A234  A(86,99,118)          111.1942         estimate D2E/DX2                !
 ! A235  A(116,99,117)         108.0419         estimate D2E/DX2                !
 ! A236  A(116,99,118)         110.1441         estimate D2E/DX2                !
 ! A237  A(117,99,118)         106.3926         estimate D2E/DX2                !
 ! A238  A(86,100,113)         112.6294         estimate D2E/DX2                !
 ! A239  A(86,100,114)         111.2042         estimate D2E/DX2                !
 ! A240  A(86,100,115)         108.9195         estimate D2E/DX2                !
 ! A241  A(113,100,114)        105.572          estimate D2E/DX2                !
 ! A242  A(113,100,115)        108.0208         estimate D2E/DX2                !
 ! A243  A(114,100,115)        110.4216         estimate D2E/DX2                !
 ! A244  A(91,121,123)          91.2889         estimate D2E/DX2                !
 ! A245  A(90,122,119)         124.0975         estimate D2E/DX2                !
 ! A246  A(90,122,123)         112.5504         estimate D2E/DX2                !
 ! A247  A(119,122,123)        123.3521         estimate D2E/DX2                !
 ! A248  A(63,123,121)         124.493          estimate D2E/DX2                !
 ! A249  A(63,123,122)         122.3775         estimate D2E/DX2                !
 ! A250  A(121,123,122)        113.1127         estimate D2E/DX2                !
 ! D1    D(3,1,2,4)            180.0            estimate D2E/DX2                !
 ! D2    D(3,1,2,10)             0.0            estimate D2E/DX2                !
 ! D3    D(62,1,2,4)            21.5941         estimate D2E/DX2                !
 ! D4    D(62,1,2,10)         -158.4059         estimate D2E/DX2                !
 ! D5    D(2,1,3,8)            180.0            estimate D2E/DX2                !
 ! D6    D(2,1,3,9)              0.0            estimate D2E/DX2                !
 ! D7    D(62,1,3,8)           -20.5612         estimate D2E/DX2                !
 ! D8    D(62,1,3,9)           159.4388         estimate D2E/DX2                !
 ! D9    D(2,1,62,60)          -16.9901         estimate D2E/DX2                !
 ! D10   D(2,1,62,61)         -176.7128         estimate D2E/DX2                !
 ! D11   D(3,1,62,60)         -175.6523         estimate D2E/DX2                !
 ! D12   D(3,1,62,61)           24.625          estimate D2E/DX2                !
 ! D13   D(1,2,4,6)            180.0            estimate D2E/DX2                !
 ! D14   D(10,2,4,6)             0.0            estimate D2E/DX2                !
 ! D15   D(1,2,10,5)          -180.0            estimate D2E/DX2                !
 ! D16   D(1,2,10,11)            0.0            estimate D2E/DX2                !
 ! D17   D(4,2,10,5)             0.0            estimate D2E/DX2                !
 ! D18   D(4,2,10,11)         -180.0            estimate D2E/DX2                !
 ! D19   D(1,3,9,7)            180.0            estimate D2E/DX2                !
 ! D20   D(1,3,9,11)             0.0            estimate D2E/DX2                !
 ! D21   D(8,3,9,7)              0.0            estimate D2E/DX2                !
 ! D22   D(8,3,9,11)           180.0            estimate D2E/DX2                !
 ! D23   D(2,4,6,5)              0.0            estimate D2E/DX2                !
 ! D24   D(10,5,6,4)             0.0            estimate D2E/DX2                !
 ! D25   D(6,5,10,2)             0.0            estimate D2E/DX2                !
 ! D26   D(6,5,10,11)          180.0            estimate D2E/DX2                !
 ! D27   D(3,9,11,10)            0.0            estimate D2E/DX2                !
 ! D28   D(3,9,11,12)         -180.0            estimate D2E/DX2                !
 ! D29   D(7,9,11,10)         -180.0            estimate D2E/DX2                !
 ! D30   D(7,9,11,12)            0.0            estimate D2E/DX2                !
 ! D31   D(2,10,11,9)            0.0            estimate D2E/DX2                !
 ! D32   D(2,10,11,12)        -180.0            estimate D2E/DX2                !
 ! D33   D(5,10,11,9)          180.0            estimate D2E/DX2                !
 ! D34   D(5,10,11,12)           0.0            estimate D2E/DX2                !
 ! D35   D(15,13,14,33)          0.0024         estimate D2E/DX2                !
 ! D36   D(15,13,14,59)       -179.9959         estimate D2E/DX2                !
 ! D37   D(73,13,14,33)        175.8216         estimate D2E/DX2                !
 ! D38   D(73,13,14,59)         -4.1767         estimate D2E/DX2                !
 ! D39   D(14,13,15,34)         -0.0111         estimate D2E/DX2                !
 ! D40   D(73,13,15,34)       -174.7785         estimate D2E/DX2                !
 ! D41   D(14,13,73,71)       -179.7135         estimate D2E/DX2                !
 ! D42   D(14,13,73,72)          3.8813         estimate D2E/DX2                !
 ! D43   D(15,13,73,71)         -4.9713         estimate D2E/DX2                !
 ! D44   D(15,13,73,72)        178.6235         estimate D2E/DX2                !
 ! D45   D(13,14,33,32)       -179.9963         estimate D2E/DX2                !
 ! D46   D(13,14,33,34)          0.0105         estimate D2E/DX2                !
 ! D47   D(59,14,33,32)          0.002          estimate D2E/DX2                !
 ! D48   D(59,14,33,34)       -179.9912         estimate D2E/DX2                !
 ! D49   D(13,15,34,33)          0.0165         estimate D2E/DX2                !
 ! D50   D(13,15,34,35)        179.9915         estimate D2E/DX2                !
 ! D51   D(21,16,17,18)          0.0077         estimate D2E/DX2                !
 ! D52   D(21,16,17,27)       -179.9932         estimate D2E/DX2                !
 ! D53   D(25,16,17,18)       -179.9865         estimate D2E/DX2                !
 ! D54   D(25,16,17,27)          0.0127         estimate D2E/DX2                !
 ! D55   D(17,16,21,20)         -0.0098         estimate D2E/DX2                !
 ! D56   D(17,16,21,40)        179.9782         estimate D2E/DX2                !
 ! D57   D(25,16,21,20)        179.9832         estimate D2E/DX2                !
 ! D58   D(25,16,21,40)         -0.0289         estimate D2E/DX2                !
 ! D59   D(17,16,25,26)         -0.0075         estimate D2E/DX2                !
 ! D60   D(17,16,25,38)       -116.5929         estimate D2E/DX2                !
 ! D61   D(17,16,25,39)        120.0378         estimate D2E/DX2                !
 ! D62   D(21,16,25,26)        179.999          estimate D2E/DX2                !
 ! D63   D(21,16,25,38)         63.4137         estimate D2E/DX2                !
 ! D64   D(21,16,25,39)        -59.9557         estimate D2E/DX2                !
 ! D65   D(16,17,18,19)          0.0028         estimate D2E/DX2                !
 ! D66   D(16,17,18,41)       -179.99           estimate D2E/DX2                !
 ! D67   D(27,17,18,19)       -179.9962         estimate D2E/DX2                !
 ! D68   D(27,17,18,41)          0.0111         estimate D2E/DX2                !
 ! D69   D(16,17,27,26)         -0.013          estimate D2E/DX2                !
 ! D70   D(16,17,27,35)        179.985          estimate D2E/DX2                !
 ! D71   D(18,17,27,26)        179.986          estimate D2E/DX2                !
 ! D72   D(18,17,27,35)         -0.016          estimate D2E/DX2                !
 ! D73   D(17,18,19,20)         -0.0107         estimate D2E/DX2                !
 ! D74   D(17,18,19,22)        179.9839         estimate D2E/DX2                !
 ! D75   D(41,18,19,20)        179.982          estimate D2E/DX2                !
 ! D76   D(41,18,19,22)         -0.0233         estimate D2E/DX2                !
 ! D77   D(18,19,20,21)          0.0086         estimate D2E/DX2                !
 ! D78   D(18,19,20,24)       -179.9979         estimate D2E/DX2                !
 ! D79   D(22,19,20,21)       -179.9869         estimate D2E/DX2                !
 ! D80   D(22,19,20,24)          0.0066         estimate D2E/DX2                !
 ! D81   D(18,19,22,23)        179.9935         estimate D2E/DX2                !
 ! D82   D(18,19,22,36)         59.9916         estimate D2E/DX2                !
 ! D83   D(18,19,22,37)        -63.3765         estimate D2E/DX2                !
 ! D84   D(20,19,22,23)         -0.0114         estimate D2E/DX2                !
 ! D85   D(20,19,22,36)       -120.0133         estimate D2E/DX2                !
 ! D86   D(20,19,22,37)        116.6186         estimate D2E/DX2                !
 ! D87   D(19,20,21,16)          0.0018         estimate D2E/DX2                !
 ! D88   D(19,20,21,40)       -179.9861         estimate D2E/DX2                !
 ! D89   D(24,20,21,16)       -179.99           estimate D2E/DX2                !
 ! D90   D(24,20,21,40)          0.0221         estimate D2E/DX2                !
 ! D91   D(19,20,24,23)          0.0016         estimate D2E/DX2                !
 ! D92   D(19,20,24,31)        179.984          estimate D2E/DX2                !
 ! D93   D(21,20,24,23)        179.9942         estimate D2E/DX2                !
 ! D94   D(21,20,24,31)         -0.0233         estimate D2E/DX2                !
 ! D95   D(19,22,23,24)          0.0122         estimate D2E/DX2                !
 ! D96   D(19,22,23,28)       -179.9964         estimate D2E/DX2                !
 ! D97   D(36,22,23,24)        117.3983         estimate D2E/DX2                !
 ! D98   D(36,22,23,28)        -62.6103         estimate D2E/DX2                !
 ! D99   D(37,22,23,24)       -119.9017         estimate D2E/DX2                !
 ! D100  D(37,22,23,28)         60.0897         estimate D2E/DX2                !
 ! D101  D(19,22,36,46)        -63.5641         estimate D2E/DX2                !
 ! D102  D(19,22,36,47)        176.6119         estimate D2E/DX2                !
 ! D103  D(19,22,36,48)         54.7072         estimate D2E/DX2                !
 ! D104  D(23,22,36,46)       -176.1443         estimate D2E/DX2                !
 ! D105  D(23,22,36,47)         64.0317         estimate D2E/DX2                !
 ! D106  D(23,22,36,48)        -57.873          estimate D2E/DX2                !
 ! D107  D(37,22,36,46)         61.7947         estimate D2E/DX2                !
 ! D108  D(37,22,36,47)        -58.0293         estimate D2E/DX2                !
 ! D109  D(37,22,36,48)       -179.9339         estimate D2E/DX2                !
 ! D110  D(19,22,37,49)        -56.9047         estimate D2E/DX2                !
 ! D111  D(19,22,37,50)       -176.4012         estimate D2E/DX2                !
 ! D112  D(19,22,37,51)         64.1335         estimate D2E/DX2                !
 ! D113  D(23,22,37,49)         55.3471         estimate D2E/DX2                !
 ! D114  D(23,22,37,50)        -64.1494         estimate D2E/DX2                !
 ! D115  D(23,22,37,51)        176.3852         estimate D2E/DX2                !
 ! D116  D(36,22,37,49)        179.9642         estimate D2E/DX2                !
 ! D117  D(36,22,37,50)         60.4677         estimate D2E/DX2                !
 ! D118  D(36,22,37,51)        -58.9977         estimate D2E/DX2                !
 ! D119  D(22,23,24,20)         -0.0092         estimate D2E/DX2                !
 ! D120  D(22,23,24,31)       -179.9935         estimate D2E/DX2                !
 ! D121  D(28,23,24,20)        179.9987         estimate D2E/DX2                !
 ! D122  D(28,23,24,31)          0.0144         estimate D2E/DX2                !
 ! D123  D(22,23,28,29)       -179.9934         estimate D2E/DX2                !
 ! D124  D(22,23,28,44)         -0.0022         estimate D2E/DX2                !
 ! D125  D(24,23,28,29)         -0.0029         estimate D2E/DX2                !
 ! D126  D(24,23,28,44)        179.9884         estimate D2E/DX2                !
 ! D127  D(20,24,31,30)       -179.9953         estimate D2E/DX2                !
 ! D128  D(20,24,31,45)         -0.0032         estimate D2E/DX2                !
 ! D129  D(23,24,31,30)         -0.0146         estimate D2E/DX2                !
 ! D130  D(23,24,31,45)        179.9775         estimate D2E/DX2                !
 ! D131  D(16,25,26,27)         -0.0007         estimate D2E/DX2                !
 ! D132  D(16,25,26,32)        179.9915         estimate D2E/DX2                !
 ! D133  D(38,25,26,27)        119.8722         estimate D2E/DX2                !
 ! D134  D(38,25,26,32)        -60.1356         estimate D2E/DX2                !
 ! D135  D(39,25,26,27)       -117.4304         estimate D2E/DX2                !
 ! D136  D(39,25,26,32)         62.5618         estimate D2E/DX2                !
 ! D137  D(16,25,38,55)        -64.105          estimate D2E/DX2                !
 ! D138  D(16,25,38,56)        176.4244         estimate D2E/DX2                !
 ! D139  D(16,25,38,57)         56.9305         estimate D2E/DX2                !
 ! D140  D(26,25,38,55)       -176.3256         estimate D2E/DX2                !
 ! D141  D(26,25,38,56)         64.2038         estimate D2E/DX2                !
 ! D142  D(26,25,38,57)        -55.2901         estimate D2E/DX2                !
 ! D143  D(39,25,38,55)         59.0422         estimate D2E/DX2                !
 ! D144  D(39,25,38,56)        -60.4284         estimate D2E/DX2                !
 ! D145  D(39,25,38,57)       -179.9223         estimate D2E/DX2                !
 ! D146  D(16,25,39,52)         63.5905         estimate D2E/DX2                !
 ! D147  D(16,25,39,53)        -54.6833         estimate D2E/DX2                !
 ! D148  D(16,25,39,54)       -176.5952         estimate D2E/DX2                !
 ! D149  D(26,25,39,52)        176.2023         estimate D2E/DX2                !
 ! D150  D(26,25,39,53)         57.9285         estimate D2E/DX2                !
 ! D151  D(26,25,39,54)        -63.9834         estimate D2E/DX2                !
 ! D152  D(38,25,39,52)        -61.7545         estimate D2E/DX2                !
 ! D153  D(38,25,39,53)        179.9716         estimate D2E/DX2                !
 ! D154  D(38,25,39,54)         58.0597         estimate D2E/DX2                !
 ! D155  D(25,26,27,17)          0.0083         estimate D2E/DX2                !
 ! D156  D(25,26,27,35)       -179.9899         estimate D2E/DX2                !
 ! D157  D(32,26,27,17)       -179.9845         estimate D2E/DX2                !
 ! D158  D(32,26,27,35)          0.0173         estimate D2E/DX2                !
 ! D159  D(25,26,32,33)       -179.9977         estimate D2E/DX2                !
 ! D160  D(25,26,32,42)          0.0052         estimate D2E/DX2                !
 ! D161  D(27,26,32,33)         -0.0063         estimate D2E/DX2                !
 ! D162  D(27,26,32,42)        179.9966         estimate D2E/DX2                !
 ! D163  D(17,27,35,34)        179.9892         estimate D2E/DX2                !
 ! D164  D(17,27,35,43)         -0.0166         estimate D2E/DX2                !
 ! D165  D(26,27,35,34)         -0.013          estimate D2E/DX2                !
 ! D166  D(26,27,35,43)        179.9812         estimate D2E/DX2                !
 ! D167  D(23,28,29,30)         -0.0072         estimate D2E/DX2                !
 ! D168  D(23,28,29,61)        179.9847         estimate D2E/DX2                !
 ! D169  D(44,28,29,30)       -179.9988         estimate D2E/DX2                !
 ! D170  D(44,28,29,61)         -0.0068         estimate D2E/DX2                !
 ! D171  D(28,29,30,31)          0.0067         estimate D2E/DX2                !
 ! D172  D(28,29,30,60)        179.9972         estimate D2E/DX2                !
 ! D173  D(61,29,30,31)       -179.9865         estimate D2E/DX2                !
 ! D174  D(61,29,30,60)          0.004          estimate D2E/DX2                !
 ! D175  D(28,29,61,58)          0.0057         estimate D2E/DX2                !
 ! D176  D(28,29,61,62)        179.9913         estimate D2E/DX2                !
 ! D177  D(30,29,61,58)        179.998          estimate D2E/DX2                !
 ! D178  D(30,29,61,62)         -0.0163         estimate D2E/DX2                !
 ! D179  D(29,30,31,24)          0.0043         estimate D2E/DX2                !
 ! D180  D(29,30,31,45)       -179.9877         estimate D2E/DX2                !
 ! D181  D(60,30,31,24)       -179.9845         estimate D2E/DX2                !
 ! D182  D(60,30,31,45)          0.0235         estimate D2E/DX2                !
 ! D183  D(29,30,60,62)          0.0064         estimate D2E/DX2                !
 ! D184  D(31,30,60,62)        179.9964         estimate D2E/DX2                !
 ! D185  D(26,32,33,14)        179.9997         estimate D2E/DX2                !
 ! D186  D(26,32,33,34)         -0.0075         estimate D2E/DX2                !
 ! D187  D(42,32,33,14)         -0.0031         estimate D2E/DX2                !
 ! D188  D(42,32,33,34)        179.9897         estimate D2E/DX2                !
 ! D189  D(14,33,34,15)         -0.0185         estimate D2E/DX2                !
 ! D190  D(14,33,34,35)       -179.9945         estimate D2E/DX2                !
 ! D191  D(32,33,34,15)        179.9876         estimate D2E/DX2                !
 ! D192  D(32,33,34,35)          0.0116         estimate D2E/DX2                !
 ! D193  D(15,34,35,27)       -179.9731         estimate D2E/DX2                !
 ! D194  D(15,34,35,43)          0.0327         estimate D2E/DX2                !
 ! D195  D(33,34,35,27)         -0.0011         estimate D2E/DX2                !
 ! D196  D(33,34,35,43)       -179.9953         estimate D2E/DX2                !
 ! D197  D(30,60,62,1)        -160.3478         estimate D2E/DX2                !
 ! D198  D(30,60,62,61)         -0.0162         estimate D2E/DX2                !
 ! D199  D(29,61,62,1)         162.603          estimate D2E/DX2                !
 ! D200  D(29,61,62,60)          0.0212         estimate D2E/DX2                !
 ! D201  D(58,61,62,1)         -17.4112         estimate D2E/DX2                !
 ! D202  D(58,61,62,60)       -179.993          estimate D2E/DX2                !
 ! D203  D(65,63,64,66)       -180.0            estimate D2E/DX2                !
 ! D204  D(65,63,64,72)          0.0            estimate D2E/DX2                !
 ! D205  D(123,63,64,66)         0.0            estimate D2E/DX2                !
 ! D206  D(123,63,64,72)       180.0            estimate D2E/DX2                !
 ! D207  D(64,63,65,70)        180.0            estimate D2E/DX2                !
 ! D208  D(64,63,65,71)          0.0            estimate D2E/DX2                !
 ! D209  D(123,63,65,70)         0.0            estimate D2E/DX2                !
 ! D210  D(123,63,65,71)       180.0            estimate D2E/DX2                !
 ! D211  D(64,63,123,121)        0.7378         estimate D2E/DX2                !
 ! D212  D(64,63,123,122)      179.1439         estimate D2E/DX2                !
 ! D213  D(65,63,123,121)     -179.2622         estimate D2E/DX2                !
 ! D214  D(65,63,123,122)       -0.8561         estimate D2E/DX2                !
 ! D215  D(63,64,66,68)        180.0            estimate D2E/DX2                !
 ! D216  D(72,64,66,68)          0.0            estimate D2E/DX2                !
 ! D217  D(63,64,72,67)        180.0            estimate D2E/DX2                !
 ! D218  D(63,64,72,73)          0.0            estimate D2E/DX2                !
 ! D219  D(66,64,72,67)          0.0            estimate D2E/DX2                !
 ! D220  D(66,64,72,73)       -180.0            estimate D2E/DX2                !
 ! D221  D(63,65,71,69)       -180.0            estimate D2E/DX2                !
 ! D222  D(63,65,71,73)          0.0            estimate D2E/DX2                !
 ! D223  D(70,65,71,69)          0.0            estimate D2E/DX2                !
 ! D224  D(70,65,71,73)        180.0            estimate D2E/DX2                !
 ! D225  D(64,66,68,67)          0.0            estimate D2E/DX2                !
 ! D226  D(72,67,68,66)          0.0            estimate D2E/DX2                !
 ! D227  D(68,67,72,64)          0.0            estimate D2E/DX2                !
 ! D228  D(68,67,72,73)        180.0            estimate D2E/DX2                !
 ! D229  D(65,71,73,13)       -176.5492         estimate D2E/DX2                !
 ! D230  D(65,71,73,72)          0.0            estimate D2E/DX2                !
 ! D231  D(69,71,73,13)          3.4508         estimate D2E/DX2                !
 ! D232  D(69,71,73,72)       -180.0            estimate D2E/DX2                !
 ! D233  D(64,72,73,13)        176.4599         estimate D2E/DX2                !
 ! D234  D(64,72,73,71)          0.0            estimate D2E/DX2                !
 ! D235  D(67,72,73,13)         -3.5401         estimate D2E/DX2                !
 ! D236  D(67,72,73,71)        180.0            estimate D2E/DX2                !
 ! D237  D(76,74,75,94)          0.0024         estimate D2E/DX2                !
 ! D238  D(76,74,75,120)      -179.9959         estimate D2E/DX2                !
 ! D239  D(124,74,75,94)       179.9949         estimate D2E/DX2                !
 ! D240  D(124,74,75,120)       -0.0034         estimate D2E/DX2                !
 ! D241  D(75,74,76,95)         -0.0111         estimate D2E/DX2                !
 ! D242  D(124,74,76,95)       179.9958         estimate D2E/DX2                !
 ! D243  D(74,75,94,93)       -179.9963         estimate D2E/DX2                !
 ! D244  D(74,75,94,95)          0.0105         estimate D2E/DX2                !
 ! D245  D(120,75,94,93)         0.002          estimate D2E/DX2                !
 ! D246  D(120,75,94,95)      -179.9912         estimate D2E/DX2                !
 ! D247  D(74,76,95,94)          0.0165         estimate D2E/DX2                !
 ! D248  D(74,76,95,96)        179.9915         estimate D2E/DX2                !
 ! D249  D(82,77,78,79)          0.0077         estimate D2E/DX2                !
 ! D250  D(82,77,78,88)       -179.9932         estimate D2E/DX2                !
 ! D251  D(86,77,78,79)       -179.9864         estimate D2E/DX2                !
 ! D252  D(86,77,78,88)          0.0127         estimate D2E/DX2                !
 ! D253  D(78,77,82,81)         -0.0098         estimate D2E/DX2                !
 ! D254  D(78,77,82,101)       179.9782         estimate D2E/DX2                !
 ! D255  D(86,77,82,81)        179.9832         estimate D2E/DX2                !
 ! D256  D(86,77,82,101)        -0.0289         estimate D2E/DX2                !
 ! D257  D(78,77,86,87)         -0.0075         estimate D2E/DX2                !
 ! D258  D(78,77,86,99)       -116.5929         estimate D2E/DX2                !
 ! D259  D(78,77,86,100)       120.0378         estimate D2E/DX2                !
 ! D260  D(82,77,86,87)        179.999          estimate D2E/DX2                !
 ! D261  D(82,77,86,99)         63.4137         estimate D2E/DX2                !
 ! D262  D(82,77,86,100)       -59.9557         estimate D2E/DX2                !
 ! D263  D(77,78,79,80)          0.0028         estimate D2E/DX2                !
 ! D264  D(77,78,79,102)      -179.99           estimate D2E/DX2                !
 ! D265  D(88,78,79,80)       -179.9962         estimate D2E/DX2                !
 ! D266  D(88,78,79,102)         0.0111         estimate D2E/DX2                !
 ! D267  D(77,78,88,87)         -0.013          estimate D2E/DX2                !
 ! D268  D(77,78,88,96)        179.985          estimate D2E/DX2                !
 ! D269  D(79,78,88,87)        179.986          estimate D2E/DX2                !
[...]
 Alpha virt. eigenvalues --    0.21993   0.22125   0.22168   0.22223   0.22270
 Alpha virt. eigenvalues --    0.22642   0.22679   0.23658   0.23913   0.24041
 Alpha virt. eigenvalues --    0.24303   0.24762   0.24999   0.25020   0.25293
 Alpha virt. eigenvalues --    0.25595   0.25822   0.25962   0.26283   0.26353
 Alpha virt. eigenvalues --    0.26757   0.27341   0.27624   0.27999   0.28154
 Alpha virt. eigenvalues --    0.28854   0.28892   0.29009   0.29511   0.29631
 Alpha virt. eigenvalues --    0.29666   0.29922   0.30139   0.30322   0.30820
 Alpha virt. eigenvalues --    0.31228   0.31344   0.31768   0.31877   0.32165
 Alpha virt. eigenvalues --    0.32391   0.33148   0.33771   0.34124   0.34811
 Alpha virt. eigenvalues --    0.34939   0.36011   0.36390   0.36433   0.36539
 Alpha virt. eigenvalues --    0.37328   0.37642   0.38430   0.38963   0.40056
 Alpha virt. eigenvalues --    0.40186   0.40490   0.40707   0.41230   0.41471
 Alpha virt. eigenvalues --    0.41657   0.41769   0.42210   0.43041   0.43329
 Alpha virt. eigenvalues --    0.43845   0.44376   0.44585   0.44805   0.45413
 Alpha virt. eigenvalues --    0.45772   0.45942   0.46221   0.46792   0.47134
 Alpha virt. eigenvalues --    0.47384   0.47795   0.48538   0.48930   0.50056
 Alpha virt. eigenvalues --    0.50133   0.50639   0.50753   0.50833   0.51362
 Alpha virt. eigenvalues --    0.51633   0.51670   0.52096   0.52545   0.52752
 Alpha virt. eigenvalues --    0.53145   0.54471   0.54549   0.55040   0.55329
 Alpha virt. eigenvalues --    0.55766   0.56904   0.57562   0.59255   0.59407
 Alpha virt. eigenvalues --    0.59918   0.60264   0.60640   0.60862   0.61240
 Alpha virt. eigenvalues --    0.61394   0.61818   0.62472   0.62738   0.63456
 Alpha virt. eigenvalues --    0.63670   0.63928   0.64759   0.64933   0.64982
 Alpha virt. eigenvalues --    0.65264   0.65271   0.65426   0.65692   0.65716
 Alpha virt. eigenvalues --    0.65955   0.66028   0.66361   0.66461   0.66512
 Alpha virt. eigenvalues --    0.66622   0.66718   0.66807   0.66874   0.67027
 Alpha virt. eigenvalues --    0.67172   0.67360   0.67582   0.67919   0.68369
 Alpha virt. eigenvalues --    0.68447   0.68633   0.68937   0.69212   0.69439
 Alpha virt. eigenvalues --    0.69643   0.69765   0.69798   0.69921   0.69936
 Alpha virt. eigenvalues --    0.70105   0.70255   0.70286   0.70350   0.70441
 Alpha virt. eigenvalues --    0.70451   0.70736   0.70832   0.71044   0.71369
 Alpha virt. eigenvalues --    0.71460   0.71776   0.72745   0.73056   0.73135
 Alpha virt. eigenvalues --    0.73655   0.73885   0.73929   0.74038   0.74597
 Alpha virt. eigenvalues --    0.75024   0.75061   0.75220   0.75538   0.75798
 Alpha virt. eigenvalues --    0.75879   0.75934   0.76531   0.76678   0.76970
 Alpha virt. eigenvalues --    0.77197   0.77526   0.77909   0.78296   0.78377
 Alpha virt. eigenvalues --    0.78417   0.78713   0.78779   0.78985   0.79207
 Alpha virt. eigenvalues --    0.79422   0.79817   0.79959   0.80299   0.80395
 Alpha virt. eigenvalues --    0.80773   0.80916   0.81105   0.81269   0.81493
 Alpha virt. eigenvalues --    0.81631   0.81772   0.82383   0.82526   0.82796
 Alpha virt. eigenvalues --    0.82999   0.83682   0.84420   0.84563   0.84681
 Alpha virt. eigenvalues --    0.84839   0.84840   0.84964   0.85421   0.86758
 Alpha virt. eigenvalues --    0.87681   0.88387   0.88460   0.88518   0.88851
 Alpha virt. eigenvalues --    0.89364   0.89492   0.89532   0.90176   0.90456
 Alpha virt. eigenvalues --    0.90953   0.91342   0.91422   0.91774   0.92086
 Alpha virt. eigenvalues --    0.92287   0.92347   0.92817   0.93021   0.93071
 Alpha virt. eigenvalues --    0.93106   0.93522   0.94895   0.94978   0.95402
 Alpha virt. eigenvalues --    0.95431   0.95815   0.95862   0.96162   0.96354
 Alpha virt. eigenvalues --    0.96547   0.96904   0.96968   0.98066   0.98343
 Alpha virt. eigenvalues --    0.98526   0.98716   0.98898   0.99390   0.99594
 Alpha virt. eigenvalues --    0.99746   1.00021   1.00122   1.00335   1.00463
 Alpha virt. eigenvalues --    1.00893   1.01113   1.01579   1.01742   1.01945
 Alpha virt. eigenvalues --    1.02289   1.02896   1.03110   1.03153   1.03228
 Alpha virt. eigenvalues --    1.03276   1.03405   1.03766   1.03778   1.04074
 Alpha virt. eigenvalues --    1.04173   1.04339   1.04458   1.04845   1.05318
 Alpha virt. eigenvalues --    1.05505   1.05532   1.06125   1.06279   1.06491
 Alpha virt. eigenvalues --    1.07347   1.07613   1.07699   1.07877   1.08053
 Alpha virt. eigenvalues --    1.08156   1.08170   1.08268   1.08523   1.08608
 Alpha virt. eigenvalues --    1.08745   1.08835   1.09684   1.09807   1.10950
 Alpha virt. eigenvalues --    1.11283   1.11402   1.11847   1.11956   1.12740
 Alpha virt. eigenvalues --    1.12850   1.12950   1.12971   1.13078   1.13169
 Alpha virt. eigenvalues --    1.13205   1.13338   1.13504   1.13723   1.13788
 Alpha virt. eigenvalues --    1.13891   1.15455   1.15946   1.16139   1.16387
 Alpha virt. eigenvalues --    1.16437   1.16542   1.17182   1.17311   1.17418
 Alpha virt. eigenvalues --    1.17639   1.18927   1.19227   1.19732   1.20131
 Alpha virt. eigenvalues --    1.20255   1.20401   1.20453   1.21170   1.21807
 Alpha virt. eigenvalues --    1.22487   1.22708   1.23350   1.23436   1.23525
 Alpha virt. eigenvalues --    1.23969   1.24499   1.25497   1.26354   1.26933
 Alpha virt. eigenvalues --    1.27556   1.27925   1.28169   1.28456   1.29161
 Alpha virt. eigenvalues --    1.30065   1.30513   1.30861   1.31379   1.32337
 Alpha virt. eigenvalues --    1.32647   1.33491   1.34042   1.35089   1.35768
 Alpha virt. eigenvalues --    1.36257   1.37539   1.37726   1.38173   1.38611
 Alpha virt. eigenvalues --    1.39084   1.40700   1.41332   1.42096   1.42201
 Alpha virt. eigenvalues --    1.43065   1.44078   1.44278   1.45684   1.46065
 Alpha virt. eigenvalues --    1.47068   1.47515   1.47849   1.47963   1.48125
 Alpha virt. eigenvalues --    1.48362   1.49232   1.49343   1.49732   1.49858
 Alpha virt. eigenvalues --    1.50369   1.50398   1.51566   1.51746   1.52847
 Alpha virt. eigenvalues --    1.53894   1.54121   1.54882   1.55471   1.55994
 Alpha virt. eigenvalues --    1.56259   1.56798   1.57142   1.57454   1.57688
 Alpha virt. eigenvalues --    1.58043   1.58703   1.58992   1.59954   1.60960
 Alpha virt. eigenvalues --    1.61206   1.61786   1.61974   1.62332   1.62510
 Alpha virt. eigenvalues --    1.65266   1.65833   1.66067   1.66407   1.66717
 Alpha virt. eigenvalues --    1.67097   1.67513   1.68345   1.70622   1.71459
 Alpha virt. eigenvalues --    1.71900   1.72030   1.72496   1.73038   1.73618
 Alpha virt. eigenvalues --    1.73973   1.75526   1.76324   1.77319   1.77516
 Alpha virt. eigenvalues --    1.79607   1.80199   1.81151   1.83566   1.85790
 Alpha virt. eigenvalues --    1.86004   1.91157   1.91927   1.92311   1.92888
 Alpha virt. eigenvalues --    1.93823   1.95681   1.95795   1.95822   1.96277
 Alpha virt. eigenvalues --    1.96390   1.98385   1.98992   1.99624   2.00778
 Alpha virt. eigenvalues --    2.02297   2.03359   2.05204   2.06028   2.07432
 Alpha virt. eigenvalues --    2.07453   2.10941   2.11898   2.13054   2.15189
 Alpha virt. eigenvalues --    2.16221   2.16318   2.17401   2.41473   2.41645
 Alpha virt. eigenvalues --    2.44990   2.45083   2.46349   2.46426   2.49654
 Alpha virt. eigenvalues --    2.49786   2.62508   2.62552   2.68819   2.68850
 Alpha virt. eigenvalues --    2.74861   2.77415   3.07804   3.13698   3.37769
 Alpha virt. eigenvalues --    3.38296   3.44345   3.48047   3.50032   3.50227
          Condensed to atoms (all electrons):
 Mulliken charges:
               1
     1  C    0.023938
     2  C    0.217626
     3  C   -0.196131
     4  N   -0.605041
     5  N   -0.581997
     6  S    0.606231
     7  H    0.202791
     8  H    0.197660
     9  C   -0.178755
    10  C    0.234204
    11  C   -0.155000
    12  H    0.212212
    13  C   -0.233536
    14  C   -0.192182
    15  S    0.425407
    16  C    0.135187
    17  C    0.035115
    18  C   -0.261813
    19  C    0.134747
    20  C    0.035211
    21  C   -0.261595
    22  C   -0.317006
    23  C    0.127973
    24  C    0.040988
    25  C   -0.317370
    26  C    0.127039
    27  C    0.041322
    28  C   -0.243524
    29  C    0.026499
    30  C   -0.245322
    31  C   -0.249628
    32  C   -0.239616
    33  C    0.023053
    34  C   -0.227495
    35  C   -0.250504
    36  C   -0.493743
    37  C   -0.493746
    38  C   -0.494046
    39  C   -0.494045
    40  H    0.176989
    41  H    0.175641
    42  H    0.183036
    43  H    0.189598
    44  H    0.176959
    45  H    0.189859
    46  H    0.186277
    47  H    0.186092
    48  H    0.206687
    49  H    0.206687
    50  H    0.186093
    51  H    0.186277
    52  H    0.187128
    53  H    0.206487
    54  H    0.187504
    55  H    0.187128
    56  H    0.187505
    57  H    0.206486
    58  H    0.188861
    59  H    0.233229
    60  S    0.490096
    61  C   -0.180323
    62  C   -0.234955
    63  C    0.024465
    64  C    0.233516
    65  C   -0.188547
    66  N   -0.606156
    67  N   -0.615853
    68  S    0.613820
    69  H    0.213981
    70  H    0.199893
    71  C   -0.207600
    72  C    0.246033
    73  C    0.035269
    74  C   -0.423349
    75  C   -0.173688
    76  S    0.406931
    77  C    0.134154
    78  C    0.035818
    79  C   -0.262669
    80  C    0.134643
    81  C    0.034652
    82  C   -0.261687
    83  C   -0.316937
    84  C    0.127870
    85  C    0.041189
    86  C   -0.316871
    87  C    0.127854
    88  C    0.038465
    89  C   -0.243298
    90  C    0.026621
    91  C   -0.244848
    92  C   -0.250097
    93  C   -0.245166
    94  C    0.021913
    95  C   -0.225130
    96  C   -0.244638
    97  C   -0.493737
    98  C   -0.493739
    99  C   -0.493850
   100  C   -0.493848
   101  H    0.176112
   102  H    0.175260
   103  H    0.178915
   104  H    0.189039
   105  H    0.177124
   106  H    0.189412
   107  H    0.186404
   108  H    0.185931
   109  H    0.206521
   110  H    0.206521
   111  H    0.185932
   112  H    0.186404
   113  H    0.186641
   114  H    0.206330
   115  H    0.186258
   116  H    0.186641
   117  H    0.186259
   118  H    0.206330
   119  H    0.189220
   120  H    0.194919
   121  S    0.487753
   122  C   -0.180220
   123  C   -0.235099
   124  H    0.221566
 Sum of Mulliken charges =  -0.00000
 Mulliken charges with hydrogens summed into heavy atoms:
               1
     1  C    0.023938
     2  C    0.217626
     3  C    0.001529
     4  N   -0.605041
     5  N   -0.581997
     6  S    0.606231
     9  C    0.024036
    10  C    0.234204
    11  C    0.057212
    13  C   -0.233536
    14  C    0.041047
    15  S    0.425407
    16  C    0.135187
    17  C    0.035115
    18  C   -0.086172
    19  C    0.134747
    20  C    0.035211
    21  C   -0.084606
    22  C   -0.317006
    23  C    0.127973
    24  C    0.040988
    25  C   -0.317370
    26  C    0.127039
    27  C    0.041322
    28  C   -0.066565
    29  C    0.026499
    30  C   -0.245322
    31  C   -0.059769
    32  C   -0.056580
    33  C    0.023053
    34  C   -0.227495
    35  C   -0.060906
    36  C    0.085313
    37  C    0.085310
    38  C    0.087073
    39  C    0.087074
    60  S    0.490096
    61  C    0.008538
    62  C   -0.234955
    63  C    0.024465
    64  C    0.233516
    65  C    0.011346
    66  N   -0.606156
    67  N   -0.615853
    68  S    0.613820
    71  C    0.006381
    72  C    0.246033
    73  C    0.035269
    74  C   -0.201783
    75  C    0.021231
    76  S    0.406931
    77  C    0.134154
    78  C    0.035818
    79  C   -0.087409
    80  C    0.134643
    81  C    0.034652
    82  C   -0.085574
    83  C   -0.316937
    84  C    0.127870
    85  C    0.041189
    86  C   -0.316871
    87  C    0.127854
    88  C    0.038465
    89  C   -0.066174
    90  C    0.026621
    91  C   -0.244848
    92  C   -0.060684
    93  C   -0.066251
    94  C    0.021913
    95  C   -0.225130
    96  C   -0.055599
    97  C    0.085119
    98  C    0.085117
    99  C    0.085380
   100  C    0.085382
   121  S    0.487753
   122  C    0.009000
   123  C   -0.235099
 Electronic spatial extent (au):  <R**2>=         314922.7853
 Charge=             -0.0000 electrons
 Dipole moment (field-independent basis, Debye):
    X=              0.2892    Y=              1.9149    Z=             -0.0002  Tot=              1.9367
 Quadrupole moment (field-independent basis, Debye-Ang):
   XX=           -437.1605   YY=           -436.9535   ZZ=           -515.3389
   XY=             45.2508   XZ=             -0.0045   YZ=              0.0001
 Traceless Quadrupole moment (field-independent basis, Debye-Ang):
   XX=             25.9905   YY=             26.1974   ZZ=            -52.1879
   XY=             45.2508   XZ=             -0.0045   YZ=              0.0001
 Octapole moment (field-independent basis, Debye-Ang**2):
  XXX=           -379.9547  YYY=            -15.1850  ZZZ=             -0.0019  XYY=             74.2709
  XXY=            376.4580  XXZ=             -0.1785  XZZ=             43.1821  YZZ=            -22.4391
  YYZ=             -0.0028  XYZ=             -0.0677
 Hexadecapole moment (field-independent basis, Debye-Ang**3):
 XXXX=        -395773.1677 YYYY=          -9660.3886 ZZZZ=          -1227.3254 XXXY=          18922.1975
 XXXZ=             -1.1256 YYYX=            126.4055 YYYZ=              0.0032 ZZZX=             -0.0094
 ZZZY=              0.0063 XXYY=         -66524.7350 XXZZ=         -76728.6997 YYZZ=          -1981.8336
 XXYZ=             -0.2675 YYXZ=             -0.0679 ZZXY=           -161.4303
 N-N= 1.111217694706D+04 E-N=-3.439337163931D+04  KE= 5.151633026338D+03
 Leave Link  601 at Tue Oct 10 20:44:45 2023, MaxMem=  1207959552 cpu:               2.4 elap:               0.3
 (Enter /opt/apps/chemistry/Gaussian/g16/l9999.exe)
 1\1\GINC-NODE149\FOpt\RB3LYP\3-21G*\C68H46N4S6\HMAKKI\10-Oct-2023\0\\#
 p opt b3lyp/3-21g*\\Gaussian optimization calculation on oligomer6\\0,
 1\C,-0.0365042741,-0.7258933881,0.1061256264\C,-0.8131642325,0.4332500
 115,0.4396434863\C,-0.7585871022,-1.8642614915,-0.2191073506\N,-0.3169
 813653,1.6360873603,0.783712063\N,-2.8349090293,1.5732655151,0.7695519
 259\S,-1.6066337168,2.6341370861,1.0717669011\H,-2.6660202821,-2.83296
 32525,-0.4938725391\H,-0.2292588242,-2.7713037839,-0.4799348408\C,-2.1
 817538895,-1.9009953634,-0.2274500308\C,-2.2669658199,0.3928421128,0.4
 302503704\C,-2.9441243468,-0.804214587,0.0881050774\H,-4.0246817572,-0
 .8270039161,0.0832034661\C,16.6845156903,0.4399546376,0.4130709861\C,1
 5.8458635704,1.4858275289,0.7142511369\S,15.7676743371,-1.0253205274,-
 0.0054576779\C,9.7403813102,1.0272523029,0.5928599664\C,10.4395551134,
 -0.1568010006,0.2522859025\C,9.7525711122,-1.3309689436,-0.0831868826\
 C,8.3644936309,-1.3024964791,-0.0727472893\C,7.6651975368,-0.118493044
 ,0.2678169635\C,8.3522496409,1.0556014019,0.6032654718\C,7.3866698155,
 -2.4396483302,-0.3971359852\C,6.0331349234,-1.7448088047,-0.1957422814
 \C,6.2231618957,-0.384901855,0.1937996427\C,10.7184507612,2.1640766888
 ,0.91713104\C,12.0715534071,1.4688230579,0.7156019112\C,11.8811111571,
 0.1104232114,0.3265161925\C,4.7677933754,-2.2692210763,-0.3440240073\C
 ,3.6527095183,-1.4324170784,-0.1023086371\C,3.856818153,-0.0769871216,
 0.2859207008\C,5.1416213942,0.4550234473,0.43633113\C,13.3379528839,1.
 9934632393,0.8639044416\C,14.4541038036,1.1599255345,0.6231232239\C,14
 .24485899,-0.1956574539,0.234891916\C,12.96376864,-0.7306211029,0.0836
 465476\C,7.5588897155,-3.617200841,0.5942107101\C,7.5548981339,-2.9130
 333616,-1.8622805341\C,10.5509401231,2.6375834099,2.3823866365\C,10.54
 68995613,3.3417844081,-0.0742466243\H,7.8122910178,1.9598132064,0.8633
 589957\H,10.2923254771,-2.2353554315,-0.3433361093\H,13.4929442919,3.0
 254615491,1.1594822839\H,12.8188730983,-1.7630436951,-0.2120566485\H,4
 .6138767229,-3.3016283472,-0.6397495677\H,5.2864502454,1.4877256392,0.
 7321295911\H,8.5556989884,-4.0600091905,0.4873672876\H,6.8114304853,-4
 .3931274246,0.3934753374\H,7.4363795105,-3.2663149226,1.6227592519\H,7
 .4295975087,-2.0706417123,-2.5483706747\H,6.8073874013,-3.6781195274,-
 2.1008573043\H,8.5516472519,-3.3443332896,-2.0092492087\H,9.5503529266
 ,3.7849518486,0.0330244692\H,10.6688859606,2.9910299624,-1.1029046934\
 H,11.2947850059,4.1172252043,0.1264564106\H,9.5544532127,3.0694060646,
 2.5292129215\H,11.2988792294,3.4022478672,2.6207009297\H,10.6757490731
 ,1.7952487167,3.0686397347\H,1.9075113037,-2.7297715543,-0.4714275944\
 H,16.2283577488,2.456005785,0.9916773925\S,2.3407775618,0.7626288545,0
 .5290417483\C,2.261218656,-1.7474440461,-0.1903986323\C,1.4239508571,-
 0.6981493421,0.1117371867\C,21.0809034555,0.3195026951,0.3713249161\C,
 20.3781863428,1.5187141423,0.7160351024\C,20.2751271829,-0.7681458583,
 0.061139204\N,20.9625952261,2.6834274357,1.0487322907\N,18.4588218091,
 2.797412182,1.0855563586\S,19.7621775207,3.7736929631,1.3630752014\H,1
 8.330024456,-1.6214280983,-0.1800072169\H,20.7361910643,-1.709013083,-
 0.2091044134\C,18.8649203045,-0.7149999985,0.0787045301\C,18.921597899
 4,1.5801353993,0.7360568181\C,18.1365913246,0.4225919369,0.4057511551\
 C,37.8219851048,0.3656961181,0.3561855061\C,37.0937179478,1.4693575305
 ,0.6736677676\S,36.8315886675,-1.0221573043,-0.0398099686\C,30.9569679
 473,1.42052855,0.670111963\C,31.5689830622,0.1930273681,0.3173340088\C
 ,30.7992674658,-0.9322244913,-0.0037983728\C,29.4162374486,-0.81152097
 93,0.0331409266\C,28.8039719361,0.4159379069,0.3859093351\C,29.5741775
 528,1.5414145676,0.7071048807\C,28.3590606247,-1.8810619187,-0.2715381
 891\C,27.0586939031,-1.0980398574,-0.0449646519\C,27.3462720589,0.2461
 172745,0.3397190899\C,32.0146882338,2.4896671813,0.9746630613\C,33.314
 7335562,1.7061979725,0.7479538613\C,33.0280058506,0.3643329722,0.36393
 71854\C,25.7588630203,-1.5371724159,-0.1686039546\C,24.7062370886,-0.6
 281949841,0.0936392856\C,25.0078643192,0.7107644514,0.4768085465\C,26.
 3275276272,1.1559980509,0.6021640846\C,34.6163983963,2.1467789052,0.87
 1986303\C,35.6691645394,1.243002475,0.6112261551\C,35.365700176,-0.095
 1938662,0.2282938614\C,34.04739694,-0.5445168081,0.1017833251\C,28.471
 3048175,-3.0680560128,0.717201523\C,28.4671450754,-2.3642033703,-1.739
 2057511\C,31.9070690538,2.9729052331,2.4423563803\C,31.9028879357,3.67
 67523055,-0.0140528496\H,29.1007757218,2.4795322985,0.9767300635\H,31.
 2725358087,-1.8704323932,-0.2734484238\H,34.8421192521,3.1669159629,1.
 1639150089\H,33.8302435955,-1.5653363842,-0.1903535535\H,25.5311252924
 ,-2.5569502056,-0.4604336679\H,26.5464440774,2.176632111,0.8942582652\
 H,29.4341822427,-3.5762073629,0.5916881341\H,27.670127856,-3.792370348
 3,0.5312600822\H,28.3920887913,-2.7103709378,1.7476508153\H,28.3850202
 923,-1.5151506365,-2.4236070013\H,27.6659126351,-3.0778015271,-1.96256
 44706\H,29.4299603496,-2.8608445523,-1.904864841\H,30.940380613,4.1854
 915245,0.1118171402\H,31.9815005612,3.3190352764,-1.0445406659\H,32.70
 45865311,4.4005369681,0.1716420488\H,30.9446240754,3.4702315685,2.6080
 367871\H,32.7088245733,3.685927502,2.6656270981\H,31.9886040876,2.1238
 082014,3.1267785693\H,22.873111525,-1.8069334007,-0.2410617035\H,37.53
 28014197,2.4195710327,0.9451973657\S,23.5556806563,1.6493858828,0.7482
 107314\C,23.2965438926,-0.8503626902,0.0323508343\C,22.5350375448,0.25
 28855095,0.3497731676\H,38.8973229797,0.2789624638,0.3295060928\\Versi
 on=ES64L-G16RevA.03\State=1-A\HF=-5200.4840871\RMSD=4.362e-09\RMSF=1.6
 70e-06\Dipole=-0.0995587,-0.7261952,-0.2080383\Quadrupole=18.0565533,1
 6.2524643,-34.3090176,32.3391052,9.1777121,15.7244831\PG=C01 [X(C68H46
 N4S6)]\\@


 BLACK HOLES SUCK.
 Job cpu time:       0 days  3 hours 56 minutes 18.7 seconds.
 Elapsed time:       0 days  0 hours 23 minutes 48.5 seconds.
 File lengths (MBytes):  RWF=    461 Int=      0 D2E=      0 Chk=     64 Scr=      1
 Normal termination of Gaussian 16 at Tue Oct 10 20:44:45 2023.
