 Entering Gaussian System, Link 0=g16
 Input=TIFBT-charge.com
 Output=TIFBT-charge.log
 Initial command:
 /opt/apps/chemistry/Gaussian/g16/l1.exe "/tmp/Gau-191590.inp" -scrdir="/tmp/"
 Entering Link 1 = /opt/apps/chemistry/Gaussian/g16/l1.exe PID=    191591.
  
 Copyright (c) 1988,1990,1992,1993,1995,1998,2003,2009,2016,
            Gaussian, Inc.  All Rights Reserved.
  
 This is part of the Gaussian(R) 16 program.  It is based on
 the Gaussian(R) 09 system (copyright 2009, Gaussian, Inc.),
 the Gaussian(R) 03 system (copyright 2003, Gaussian, Inc.),
 the Gaussian(R) 98 system (copyright 1998, Gaussian, Inc.),
 the Gaussian(R) 94 system (copyright 1995, Gaussian, Inc.),
 the Gaussian 92(TM) system (copyright 1992, Gaussian, Inc.),
 the Gaussian 90(TM) system (copyright 1990, Gaussian, Inc.),
 the Gaussian 88(TM) system (copyright 1988, Gaussian, Inc.),
 the Gaussian 86(TM) system (copyright 1986, Carnegie Mellon
 University), and the Gaussian 82(TM) system (copyright 1983,
 Carnegie Mellon University). Gaussian is a federally registered
 trademark of Gaussian, Inc.
  
 This software contains proprietary and confidential information,
 including trade secrets, belonging to Gaussian, Inc.
  
 This software is provided under written license and may be
 used, copied, transmitted, or stored only in accord with that
 written license.
  
 The following legend is applicable only to US Government
 contracts under FAR:
  
                    RESTRICTED RIGHTS LEGEND
  
 Use, reproduction and disclosure by the US Government is
 subject to restrictions as set forth in subparagraphs (a)
 and (c) of the Commercial Computer Software - Restricted
 Rights clause in FAR 52.227-19.
  
 Gaussian, Inc.
 340 Quinnipiac St., Bldg. 40, Wallingford CT 06492
  
  
 ---------------------------------------------------------------
 Warning -- This program may not be used in any manner that
 competes with the business of Gaussian, Inc. or will provide
 assistance to any competitor of Gaussian, Inc.  The licensee
 of this program is prohibited from giving any competitor of
 Gaussian, Inc. access to this program.  By using this program,
 the user acknowledges that Gaussian, Inc. is engaged in the
 business of creating and licensing software in the field of
 computational chemistry and represents and warrants to the
 licensee that it is not a competitor of Gaussian, Inc. and that
 it will not use this program in any manner prohibited above.
 ---------------------------------------------------------------
  

 Cite this work as:
 Gaussian 16, Revision A.03,
 M. J. Frisch, G. W. Trucks, H. B. Schlegel, G. E. Scuseria, 
 M. A. Robb, J. R. Cheeseman, G. Scalmani, V. Barone, 
 G. A. Petersson, H. Nakatsuji, X. Li, M. Caricato, A. V. Marenich, 
 J. Bloino, B. G. Janesko, R. Gomperts, B. Mennucci, H. P. Hratchian, 
 J. V. Ortiz, A. F. Izmaylov, J. L. Sonnenberg, D. Williams-Young, 
 F. Ding, F. Lipparini, F. Egidi, J. Goings, B. Peng, A. Petrone, 
 T. Henderson, D. Ranasinghe, V. G. Zakrzewski, J. Gao, N. Rega, 
 G. Zheng, W. Liang, M. Hada, M. Ehara, K. Toyota, R. Fukuda, 
 J. Hasegawa, M. Ishida, T. Nakajima, Y. Honda, O. Kitao, H. Nakai, 
 T. Vreven, K. Throssell, J. A. Montgomery, Jr., J. E. Peralta, 
 F. Ogliaro, M. J. Bearpark, J. J. Heyd, E. N. Brothers, K. N. Kudin, 
 V. N. Staroverov, T. A. Keith, R. Kobayashi, J. Normand, 
 K. Raghavachari, A. P. Rendell, J. C. Burant, S. S. Iyengar, 
 J. Tomasi, M. Cossi, J. M. Millam, M. Klene, C. Adamo, R. Cammi, 
 J. W. Ochterski, R. L. Martin, K. Morokuma, O. Farkas, 
 J. B. Foresman, and D. J. Fox, Gaussian, Inc., Wallingford CT, 2016.
 
 ******************************************
 Gaussian 16:  ES64L-G16RevA.03 25-Dec-2016
                11-Oct-2023 
 ******************************************
 %nproc=10
 Will use up to   10 processors via shared memory.
 %mem=9GB
 %chk=TIFBT-chelpg.chk
 ------------------------------
 #p opt b3lyp/6-31g* pop=chelpg
 ------------------------------
 1/18=20,19=15,26=3,38=1/1,3;
 2/9=110,12=2,17=6,18=5,40=1/2;
 3/5=1,6=6,7=1,11=2,25=1,30=1,71=1,74=-5/1,2,3;
 4//1;
 5/5=2,38=5/2;
 6/7=2,8=2,9=2,10=2,15=8,20=3,28=1/1,2;
 7//1,2,3,16;
 1/18=20,19=15,26=3/3(2);
 2/9=110/2;
 99//99;
 2/9=110/2;
 3/5=1,6=6,7=1,11=2,25=1,30=1,71=1,74=-5/1,2,3;
 4/5=5,16=3,69=1/1;
 5/5=2,38=5/2;
 7//1,2,3,16;
 1/18=20,19=15,26=3/3(-5);
 2/9=110/2;
 6/7=2,8=2,9=2,10=2,15=8,19=2,20=3,28=1/1,2;
 99/9=1/99;
 Leave Link    1 at Wed Oct 11 00:09:53 2023, MaxMem=  1207959552 cpu:               0.5 elap:               0.1
 (Enter /opt/apps/chemistry/Gaussian/g16/l101.exe)
 ----------------------------------------------
 Gaussian optimization calculation on oligomer4
 ----------------------------------------------
 Symbolic Z-matrix:
 Charge =  0 Multiplicity = 1
 C                    -17.12705  -0.2628    0.00161 
 C                    -17.9037  -1.47697   0.00172 
 C                    -17.84746   0.92121   0.00196 
 N                    -17.43289  -2.74053   0.00143 
 N                    -19.94931  -2.63365   0.00219 
 S                    -18.73976  -3.75584   0.00176 
 H                    -19.74913   1.94194   0.00262 
 H                    -17.31114   1.86294   0.00192 
 C                    -19.27025   0.97014   0.00238 
 C                    -19.36075  -1.41641   0.00211 
 C                    -20.0335  -0.16806   0.00243 
 H                    -21.11408  -0.14458   0.00271 
 C                    -0.40641   0.91391  -0.00173 
 C                    -1.2451    2.00211  -0.00128 
 S                    -1.32379  -0.60995  -0.00217 
 C                    -7.35068   1.52826  -0.00062 
 C                    -6.6516    0.29613  -0.00117 
 C                    -7.33845  -0.92506  -0.00137 
 C                    -8.72658  -0.8949   -0.00101 
 C                    -9.42559   0.33722  -0.00046 
 C                    -8.7388    1.55839  -0.00027 
 C                    -9.70473  -2.07703  -0.00106 
 C                    -11.05776  -1.35304  -0.00048 
 C                    -10.86746   0.0598   -0.00014 
 C                    -6.37255   2.7104   -0.00048 
 C                    -5.01949   1.98643  -0.00091 
 C                    -5.20997   0.57347  -0.00136 
 C                    -12.32444  -1.89814  -0.00026 
 C                    -13.43997  -1.03042   0.00032 
 C                    -13.23116   0.37925   0.00064 
 C                    -11.94976   0.93527   0.00041 
 C                    -3.75298   2.5315   -0.00088 
 C                    -2.637     1.66375  -0.0013 
 C                    -2.84631   0.25377  -0.00177 
 C                    -4.12749  -0.30206  -0.00182 
 C                    -9.53548  -2.9356   -1.27912 
 C                    -9.53478  -2.93623   1.27649 
 C                    -6.54235   3.56952  -1.27811 
 C                    -6.54193   3.56899   1.27752 
 H                    -9.2786    2.4994    0.00016 
 H                    -6.79869  -1.86609  -0.00179 
 H                    -3.59783   3.60498  -0.00052 
 H                    -4.27246  -1.37598  -0.00216 
 H                    -12.47966  -2.9716   -0.00053 
 H                    -11.80483   2.0092    0.00063 
 H                    -8.53899  -3.39126  -1.30006 
 H                    -10.28342  -3.73628  -1.29876 
 H                    -9.65908  -2.31473  -2.1709 
 H                    -9.65789  -2.31579   2.16865 
 H                    -10.28271  -3.73692   1.29614 
 H                    -8.53828  -3.39189   1.29667 
 H                    -7.53846   4.02456   1.29838 
 H                    -6.41838   2.94812   2.16932 
 H                    -5.79404   4.36972   1.29723 
 H                    -7.53889   4.0251   -1.29846 
 H                    -5.79445   4.37026  -1.29772 
 H                    -6.41908   2.94901  -2.17019 
 H                    -15.2166  -2.37737   0.00054 
 H                    -0.86287   3.01105  -0.00096 
 S                    -14.75397   1.24269   0.00123 
 C                    -14.83298  -1.36865   0.00066 
 C                    -15.66994  -0.28108   0.00124 
 C                     3.99104   0.7773   -0.00165 
 C                     3.2972    2.03734  -0.00109 
 C                     3.17901  -0.34795  -0.00234 
 N                     3.86668   3.25825  -0.00057 
 N                     1.3624    3.35539  -0.00058 
 S                     2.65623   4.38037  -0.00007 
 H                     1.23338  -1.23535  -0.00294 
 H                     3.63988  -1.32874  -0.0028 
 C                     1.76883  -0.29318  -0.0024 
 C                     1.83564   2.09404  -0.0012 
 C                     1.04643   0.89155  -0.00181 
 C                     20.54884  -1.67529   0.0032 
 C                     19.66059  -2.70499   0.00192 
 S                     19.7801  -0.10283   0.00403 
 C                     13.59685  -1.76041  -0.00055 
 C                     14.38902  -0.58639   0.0008 
 C                     13.79889   0.68383   0.00153 
 C                     12.41224   0.76134   0.00091 
 C                     11.62003  -0.41265  -0.00041 
 C                     12.21045  -1.68319  -0.00117 
 C                     11.52865   2.01579   0.00147 
 C                     10.12349   1.39891   0.00038 
 C                     10.20397  -0.02457  -0.0007 
 C                     14.48066  -3.01487  -0.00113 
 C                     15.88595  -2.398     0.00013 
 C                     15.80641  -0.97539   0.00122 
 C                     8.90307   2.04048   0.00044 
 C                     7.72314   1.26181  -0.00057 
 C                     7.8226   -0.16009  -0.00161 
 C                     9.05695  -0.81353  -0.00171 
 C                     17.10672  -3.04113   0.00028 
 C                     18.28567  -2.26449   0.00152 
 C                     18.18897  -0.84314   0.00259 
 C                     16.95309  -0.18863   0.00245 
 C                     11.76456   2.86008  -1.27553 
 C                     11.76344   2.85816   1.27995 
 C                     14.24575  -3.85703  -1.2797 
 C                     14.24441  -3.85927   1.27569 
 H                     11.59952  -2.57966  -0.00219 
 H                     14.40986   1.58024   0.00255 
 H                     17.17489  -4.12381  -0.00054 
 H                     16.89353   0.89351   0.00328 
 H                     8.83175   3.12277   0.00126 
 H                     9.11825  -1.89545  -0.00255 
 H                     12.79323   3.23753  -1.29535 
 H                     11.0806   3.71612  -1.29483 
 H                     11.59414   2.25148  -2.16806 
 H                     11.59222   2.24823   2.17141 
 H                     11.07948   3.71418   1.2999 
 H                     12.79211   3.23557   1.30126 
 H                     13.21577  -4.23691   1.29545 
 H                     14.4147  -3.25066   2.16823 
 H                     14.92844  -4.7153    1.29509 
 H                     13.21712  -4.23461  -1.30124 
 H                     14.92978  -4.71303  -1.29985 
 H                     14.41702  -3.24686  -2.17098 
 H                     6.0588    2.74246  -0.00002 
 H                     19.95056  -3.74678   0.00126 
 S                     6.23775  -0.90337  -0.00277 
 C                     6.36167   1.70693  -0.00063 
 C                     5.44111   0.68701  -0.00156 
 H                     21.62589  -1.74272   0.00373 
 
 ITRead=  0  0  0  0  0  0  0  0  0  0  0  0  0  0  0  0  0  0  0  0
 ITRead=  0  0  0  0  0  0  0  0  0  0  0  0  0  0  0  0  0  0  0  0
 ITRead=  0  0  0  0  0  0  0  0  0  0  0  0  0  0  0  0  0  0  0  0
 ITRead=  0  0  0  0  0  0  0  0  0  0  0  0  0  0  0  0  0  0  0  0
 ITRead=  0  0  0  0  0  0  0  0  0  0  0  0  0  0  0  0  0  0  0  0
 ITRead=  0  0  0  0  0  0  0  0  0  0  0  0  0  0  0  0  0  0  0  0
 ITRead=  0  0  0  0
 MicOpt= -1 -1 -1 -1 -1 -1 -1 -1 -1 -1 -1 -1 -1 -1 -1 -1 -1 -1 -1 -1
 MicOpt= -1 -1 -1 -1 -1 -1 -1 -1 -1 -1 -1 -1 -1 -1 -1 -1 -1 -1 -1 -1
 MicOpt= -1 -1 -1 -1 -1 -1 -1 -1 -1 -1 -1 -1 -1 -1 -1 -1 -1 -1 -1 -1
 MicOpt= -1 -1 -1 -1 -1 -1 -1 -1 -1 -1 -1 -1 -1 -1 -1 -1 -1 -1 -1 -1
 MicOpt= -1 -1 -1 -1 -1 -1 -1 -1 -1 -1 -1 -1 -1 -1 -1 -1 -1 -1 -1 -1
 MicOpt= -1 -1 -1 -1 -1 -1 -1 -1 -1 -1 -1 -1 -1 -1 -1 -1 -1 -1 -1 -1
 MicOpt= -1 -1 -1 -1
 NAtoms=    124 NQM=      124 NQMF=       0 NMMI=      0 NMMIF=      0
                NMic=       0 NMicF=      0.
                    Isotopes and Nuclear Properties:
 (Nuclear quadrupole moments (NQMom) in fm**2, nuclear magnetic moments (NMagM)
  in nuclear magnetons)

  Atom         1           2           3           4           5           6           7           8           9          10
 IAtWgt=          12          12          12          14          14          32           1           1          12          12
 AtmWgt=  12.0000000  12.0000000  12.0000000  14.0030740  14.0030740  31.9720718   1.0078250   1.0078250  12.0000000  12.0000000
 NucSpn=           0           0           0           2           2           0           1           1           0           0
 AtZEff=  -0.0000000  -0.0000000  -0.0000000  -0.0000000  -0.0000000  -0.0000000  -0.0000000  -0.0000000  -0.0000000  -0.0000000
 NQMom=    0.0000000   0.0000000   0.0000000   2.0440000   2.0440000   0.0000000   0.0000000   0.0000000   0.0000000   0.0000000
 NMagM=    0.0000000   0.0000000   0.0000000   0.4037610   0.4037610   0.0000000   2.7928460   2.7928460   0.0000000   0.0000000
 AtZNuc=   6.0000000   6.0000000   6.0000000   7.0000000   7.0000000  16.0000000   1.0000000   1.0000000   6.0000000   6.0000000

  Atom        11          12          13          14          15          16          17          18          19          20
 IAtWgt=          12           1          12          12          32          12          12          12          12          12
 AtmWgt=  12.0000000   1.0078250  12.0000000  12.0000000  31.9720718  12.0000000  12.0000000  12.0000000  12.0000000  12.0000000
 NucSpn=           0           1           0           0           0           0           0           0           0           0
 AtZEff=  -0.0000000  -0.0000000  -0.0000000  -0.0000000  -0.0000000  -0.0000000  -0.0000000  -0.0000000  -0.0000000  -0.0000000
 NQMom=    0.0000000   0.0000000   0.0000000   0.0000000   0.0000000   0.0000000   0.0000000   0.0000000   0.0000000   0.0000000
 NMagM=    0.0000000   2.7928460   0.0000000   0.0000000   0.0000000   0.0000000   0.0000000   0.0000000   0.0000000   0.0000000
 AtZNuc=   6.0000000   1.0000000   6.0000000   6.0000000  16.0000000   6.0000000   6.0000000   6.0000000   6.0000000   6.0000000

  Atom        21          22          23          24          25          26          27          28          29          30
 IAtWgt=          12          12          12          12          12          12          12          12          12          12
 AtmWgt=  12.0000000  12.0000000  12.0000000  12.0000000  12.0000000  12.0000000  12.0000000  12.0000000  12.0000000  12.0000000
 NucSpn=           0           0           0           0           0           0           0           0           0           0
 AtZEff=  -0.0000000  -0.0000000  -0.0000000  -0.0000000  -0.0000000  -0.0000000  -0.0000000  -0.0000000  -0.0000000  -0.0000000
 NQMom=    0.0000000   0.0000000   0.0000000   0.0000000   0.0000000   0.0000000   0.0000000   0.0000000   0.0000000   0.0000000
 NMagM=    0.0000000   0.0000000   0.0000000   0.0000000   0.0000000   0.0000000   0.0000000   0.0000000   0.0000000   0.0000000
 AtZNuc=   6.0000000   6.0000000   6.0000000   6.0000000   6.0000000   6.0000000   6.0000000   6.0000000   6.0000000   6.0000000

  Atom        31          32          33          34          35          36          37          38          39          40
 IAtWgt=          12          12          12          12          12          12          12          12          12           1
 AtmWgt=  12.0000000  12.0000000  12.0000000  12.0000000  12.0000000  12.0000000  12.0000000  12.0000000  12.0000000   1.0078250
 NucSpn=           0           0           0           0           0           0           0           0           0           1
 AtZEff=  -0.0000000  -0.0000000  -0.0000000  -0.0000000  -0.0000000  -0.0000000  -0.0000000  -0.0000000  -0.0000000  -0.0000000
 NQMom=    0.0000000   0.0000000   0.0000000   0.0000000   0.0000000   0.0000000   0.0000000   0.0000000   0.0000000   0.0000000
 NMagM=    0.0000000   0.0000000   0.0000000   0.0000000   0.0000000   0.0000000   0.0000000   0.0000000   0.0000000   2.7928460
 AtZNuc=   6.0000000   6.0000000   6.0000000   6.0000000   6.0000000   6.0000000   6.0000000   6.0000000   6.0000000   1.0000000

  Atom        41          42          43          44          45          46          47          48          49          50
 IAtWgt=           1           1           1           1           1           1           1           1           1           1
 AtmWgt=   1.0078250   1.0078250   1.0078250   1.0078250   1.0078250   1.0078250   1.0078250   1.0078250   1.0078250   1.0078250
 NucSpn=           1           1           1           1           1           1           1           1           1           1
 AtZEff=  -0.0000000  -0.0000000  -0.0000000  -0.0000000  -0.0000000  -0.0000000  -0.0000000  -0.0000000  -0.0000000  -0.0000000
 NQMom=    0.0000000   0.0000000   0.0000000   0.0000000   0.0000000   0.0000000   0.0000000   0.0000000   0.0000000   0.0000000
 NMagM=    2.7928460   2.7928460   2.7928460   2.7928460   2.7928460   2.7928460   2.7928460   2.7928460   2.7928460   2.7928460
 AtZNuc=   1.0000000   1.0000000   1.0000000   1.0000000   1.0000000   1.0000000   1.0000000   1.0000000   1.0000000   1.0000000

  Atom        51          52          53          54          55          56          57          58          59          60
 IAtWgt=           1           1           1           1           1           1           1           1           1          32
 AtmWgt=   1.0078250   1.0078250   1.0078250   1.0078250   1.0078250   1.0078250   1.0078250   1.0078250   1.0078250  31.9720718
 NucSpn=           1           1           1           1           1           1           1           1           1           0
 AtZEff=  -0.0000000  -0.0000000  -0.0000000  -0.0000000  -0.0000000  -0.0000000  -0.0000000  -0.0000000  -0.0000000  -0.0000000
 NQMom=    0.0000000   0.0000000   0.0000000   0.0000000   0.0000000   0.0000000   0.0000000   0.0000000   0.0000000   0.0000000
 NMagM=    2.7928460   2.7928460   2.7928460   2.7928460   2.7928460   2.7928460   2.7928460   2.7928460   2.7928460   0.0000000
 AtZNuc=   1.0000000   1.0000000   1.0000000   1.0000000   1.0000000   1.0000000   1.0000000   1.0000000   1.0000000  16.0000000

  Atom        61          62          63          64          65          66          67          68          69          70
 IAtWgt=          12          12          12          12          12          14          14          32           1           1
 AtmWgt=  12.0000000  12.0000000  12.0000000  12.0000000  12.0000000  14.0030740  14.0030740  31.9720718   1.0078250   1.0078250
 NucSpn=           0           0           0           0           0           2           2           0           1           1
 AtZEff=  -0.0000000  -0.0000000  -0.0000000  -0.0000000  -0.0000000  -0.0000000  -0.0000000  -0.0000000  -0.0000000  -0.0000000
 NQMom=    0.0000000   0.0000000   0.0000000   0.0000000   0.0000000   2.0440000   2.0440000   0.0000000   0.0000000   0.0000000
 NMagM=    0.0000000   0.0000000   0.0000000   0.0000000   0.0000000   0.4037610   0.4037610   0.0000000   2.7928460   2.7928460
 AtZNuc=   6.0000000   6.0000000   6.0000000   6.0000000   6.0000000   7.0000000   7.0000000  16.0000000   1.0000000   1.0000000

  Atom        71          72          73          74          75          76          77          78          79          80
 IAtWgt=          12          12          12          12          12          32          12          12          12          12
 AtmWgt=  12.0000000  12.0000000  12.0000000  12.0000000  12.0000000  31.9720718  12.0000000  12.0000000  12.0000000  12.0000000
 NucSpn=           0           0           0           0           0           0           0           0           0           0
 AtZEff=  -0.0000000  -0.0000000  -0.0000000  -0.0000000  -0.0000000  -0.0000000  -0.0000000  -0.0000000  -0.0000000  -0.0000000
 NQMom=    0.0000000   0.0000000   0.0000000   0.0000000   0.0000000   0.0000000   0.0000000   0.0000000   0.0000000   0.0000000
 NMagM=    0.0000000   0.0000000   0.0000000   0.0000000   0.0000000   0.0000000   0.0000000   0.0000000   0.0000000   0.0000000
 AtZNuc=   6.0000000   6.0000000   6.0000000   6.0000000   6.0000000  16.0000000   6.0000000   6.0000000   6.0000000   6.0000000

  Atom        81          82          83          84          85          86          87          88          89          90
 IAtWgt=          12          12          12          12          12          12          12          12          12          12
 AtmWgt=  12.0000000  12.0000000  12.0000000  12.0000000  12.0000000  12.0000000  12.0000000  12.0000000  12.0000000  12.0000000
 NucSpn=           0           0           0           0           0           0           0           0           0           0
 AtZEff=  -0.0000000  -0.0000000  -0.0000000  -0.0000000  -0.0000000  -0.0000000  -0.0000000  -0.0000000  -0.0000000  -0.0000000
 NQMom=    0.0000000   0.0000000   0.0000000   0.0000000   0.0000000   0.0000000   0.0000000   0.0000000   0.0000000   0.0000000
 NMagM=    0.0000000   0.0000000   0.0000000   0.0000000   0.0000000   0.0000000   0.0000000   0.0000000   0.0000000   0.0000000
 AtZNuc=   6.0000000   6.0000000   6.0000000   6.0000000   6.0000000   6.0000000   6.0000000   6.0000000   6.0000000   6.0000000

  Atom        91          92          93          94          95          96          97          98          99         100
 IAtWgt=          12          12          12          12          12          12          12          12          12          12
 AtmWgt=  12.0000000  12.0000000  12.0000000  12.0000000  12.0000000  12.0000000  12.0000000  12.0000000  12.0000000  12.0000000
 NucSpn=           0           0           0           0           0           0           0           0           0           0
 AtZEff=  -0.0000000  -0.0000000  -0.0000000  -0.0000000  -0.0000000  -0.0000000  -0.0000000  -0.0000000  -0.0000000  -0.0000000
 NQMom=    0.0000000   0.0000000   0.0000000   0.0000000   0.0000000   0.0000000   0.0000000   0.0000000   0.0000000   0.0000000
 NMagM=    0.0000000   0.0000000   0.0000000   0.0000000   0.0000000   0.0000000   0.0000000   0.0000000   0.0000000   0.0000000
 AtZNuc=   6.0000000   6.0000000   6.0000000   6.0000000   6.0000000   6.0000000   6.0000000   6.0000000   6.0000000   6.0000000

  Atom       101         102         103         104         105         106         107         108         109         110
 IAtWgt=           1           1           1           1           1           1           1           1           1           1
 AtmWgt=   1.0078250   1.0078250   1.0078250   1.0078250   1.0078250   1.0078250   1.0078250   1.0078250   1.0078250   1.0078250
 NucSpn=           1           1           1           1           1           1           1           1           1           1
 AtZEff=  -0.0000000  -0.0000000  -0.0000000  -0.0000000  -0.0000000  -0.0000000  -0.0000000  -0.0000000  -0.0000000  -0.0000000
 NQMom=    0.0000000   0.0000000   0.0000000   0.0000000   0.0000000   0.0000000   0.0000000   0.0000000   0.0000000   0.0000000
 NMagM=    2.7928460   2.7928460   2.7928460   2.7928460   2.7928460   2.7928460   2.7928460   2.7928460   2.7928460   2.7928460
 AtZNuc=   1.0000000   1.0000000   1.0000000   1.0000000   1.0000000   1.0000000   1.0000000   1.0000000   1.0000000   1.0000000

  Atom       111         112         113         114         115         116         117         118         119         120
 IAtWgt=           1           1           1           1           1           1           1           1           1           1
 AtmWgt=   1.0078250   1.0078250   1.0078250   1.0078250   1.0078250   1.0078250   1.0078250   1.0078250   1.0078250   1.0078250
 NucSpn=           1           1           1           1           1           1           1           1           1           1
 AtZEff=  -0.0000000  -0.0000000  -0.0000000  -0.0000000  -0.0000000  -0.0000000  -0.0000000  -0.0000000  -0.0000000  -0.0000000
 NQMom=    0.0000000   0.0000000   0.0000000   0.0000000   0.0000000   0.0000000   0.0000000   0.0000000   0.0000000   0.0000000
 NMagM=    2.7928460   2.7928460   2.7928460   2.7928460   2.7928460   2.7928460   2.7928460   2.7928460   2.7928460   2.7928460
 AtZNuc=   1.0000000   1.0000000   1.0000000   1.0000000   1.0000000   1.0000000   1.0000000   1.0000000   1.0000000   1.0000000

  Atom       121         122         123         124
 IAtWgt=          32          12          12           1
 AtmWgt=  31.9720718  12.0000000  12.0000000   1.0078250
 NucSpn=           0           0           0           1
 AtZEff=  -0.0000000  -0.0000000  -0.0000000  -0.0000000
 NQMom=    0.0000000   0.0000000   0.0000000   0.0000000
 NMagM=    0.0000000   0.0000000   0.0000000   2.7928460
 AtZNuc=  16.0000000   6.0000000   6.0000000   1.0000000
 Leave Link  101 at Wed Oct 11 00:09:54 2023, MaxMem=  1207959552 cpu:               5.7 elap:               0.6
 (Enter /opt/apps/chemistry/Gaussian/g16/l103.exe)

 GradGradGradGradGradGradGradGradGradGradGradGradGradGradGradGradGradGrad
 Berny optimization.
 Initialization pass.
                           ----------------------------
                           !    Initial Parameters    !
                           ! (Angstroms and Degrees)  !
 --------------------------                            --------------------------
 ! Name  Definition              Value          Derivative Info.                !
 --------------------------------------------------------------------------------
 ! R1    R(1,2)                  1.4413         estimate D2E/DX2                !
 ! R2    R(1,3)                  1.386          estimate D2E/DX2                !
 ! R3    R(1,62)                 1.4572         estimate D2E/DX2                !
 ! R4    R(2,4)                  1.3484         estimate D2E/DX2                !
 ! R5    R(2,10)                 1.4583         estimate D2E/DX2                !
 ! R6    R(3,8)                  1.0837         estimate D2E/DX2                !
 ! R7    R(3,9)                  1.4236         estimate D2E/DX2                !
 ! R8    R(4,6)                  1.6549         estimate D2E/DX2                !
 ! R9    R(5,6)                  1.6499         estimate D2E/DX2                !
 ! R10   R(5,10)                 1.3521         estimate D2E/DX2                !
 ! R11   R(7,9)                  1.0834         estimate D2E/DX2                !
 ! R12   R(9,11)                 1.3704         estimate D2E/DX2                !
 ! R13   R(10,11)                1.4181         estimate D2E/DX2                !
 ! R14   R(11,12)                1.0808         estimate D2E/DX2                !
 ! R15   R(13,14)                1.3739         estimate D2E/DX2                !
 ! R16   R(13,15)                1.7787         estimate D2E/DX2                !
 ! R17   R(13,73)                1.453          estimate D2E/DX2                !
 ! R18   R(14,33)                1.4324         estimate D2E/DX2                !
 ! R19   R(14,59)                1.0789         estimate D2E/DX2                !
 ! R20   R(15,34)                1.7505         estimate D2E/DX2                !
 ! R21   R(16,17)                1.4166         estimate D2E/DX2                !
 ! R22   R(16,21)                1.3884         estimate D2E/DX2                !
 ! R23   R(16,25)                1.5343         estimate D2E/DX2                !
 ! R24   R(17,18)                1.4011         estimate D2E/DX2                !
 ! R25   R(17,27)                1.4681         estimate D2E/DX2                !
 ! R26   R(18,19)                1.3885         estimate D2E/DX2                !
 ! R27   R(18,41)                1.0848         estimate D2E/DX2                !
 ! R28   R(19,20)                1.4166         estimate D2E/DX2                !
 ! R29   R(19,22)                1.5343         estimate D2E/DX2                !
 ! R30   R(20,21)                1.401          estimate D2E/DX2                !
 ! R31   R(20,24)                1.4683         estimate D2E/DX2                !
 ! R32   R(21,40)                1.0848         estimate D2E/DX2                !
 ! R33   R(22,23)                1.5346         estimate D2E/DX2                !
 ! R34   R(22,36)                1.5489         estimate D2E/DX2                !
 ! R35   R(22,37)                1.5489         estimate D2E/DX2                !
 ! R36   R(23,24)                1.4256         estimate D2E/DX2                !
 ! R37   R(23,28)                1.379          estimate D2E/DX2                !
 ! R38   R(24,31)                1.3921         estimate D2E/DX2                !
 ! R39   R(25,26)                1.5346         estimate D2E/DX2                !
 ! R40   R(25,38)                1.549          estimate D2E/DX2                !
 ! R41   R(25,39)                1.5489         estimate D2E/DX2                !
 ! R42   R(26,27)                1.4257         estimate D2E/DX2                !
 ! R43   R(26,32)                1.3788         estimate D2E/DX2                !
 ! R44   R(27,35)                1.3922         estimate D2E/DX2                !
 ! R45   R(28,29)                1.4133         estimate D2E/DX2                !
 ! R46   R(28,44)                1.0846         estimate D2E/DX2                !
 ! R47   R(29,30)                1.4251         estimate D2E/DX2                !
 ! R48   R(29,61)                1.4335         estimate D2E/DX2                !
 ! R49   R(30,31)                1.3968         estimate D2E/DX2                !
 ! R50   R(30,60)                1.7506         estimate D2E/DX2                !
 ! R51   R(31,45)                1.0837         estimate D2E/DX2                !
 ! R52   R(32,33)                1.4136         estimate D2E/DX2                !
 ! R53   R(32,42)                1.0846         estimate D2E/DX2                !
 ! R54   R(33,34)                1.4254         estimate D2E/DX2                !
 ! R55   R(34,35)                1.3966         estimate D2E/DX2                !
 ! R56   R(35,43)                1.0837         estimate D2E/DX2                !
 ! R57   R(36,46)                1.0959         estimate D2E/DX2                !
 ! R58   R(36,47)                1.0959         estimate D2E/DX2                !
 ! R59   R(36,48)                1.0936         estimate D2E/DX2                !
 ! R60   R(37,49)                1.0936         estimate D2E/DX2                !
 ! R61   R(37,50)                1.0959         estimate D2E/DX2                !
 ! R62   R(37,51)                1.0959         estimate D2E/DX2                !
 ! R63   R(38,55)                1.0959         estimate D2E/DX2                !
 ! R64   R(38,56)                1.0959         estimate D2E/DX2                !
 ! R65   R(38,57)                1.0936         estimate D2E/DX2                !
 ! R66   R(39,52)                1.0959         estimate D2E/DX2                !
 ! R67   R(39,53)                1.0936         estimate D2E/DX2                !
 ! R68   R(39,54)                1.0959         estimate D2E/DX2                !
 ! R69   R(58,61)                1.0792         estimate D2E/DX2                !
 ! R70   R(60,62)                1.7779         estimate D2E/DX2                !
 ! R71   R(61,62)                1.3723         estimate D2E/DX2                !
 ! R72   R(63,64)                1.4384         estimate D2E/DX2                !
 ! R73   R(63,65)                1.3877         estimate D2E/DX2                !
 ! R74   R(63,123)               1.4529         estimate D2E/DX2                !
 ! R75   R(64,66)                1.3472         estimate D2E/DX2                !
 ! R76   R(64,72)                1.4627         estimate D2E/DX2                !
 ! R77   R(65,70)                1.0837         estimate D2E/DX2                !
 ! R78   R(65,71)                1.4112         estimate D2E/DX2                !
 ! R79   R(66,68)                1.6506         estimate D2E/DX2                !
 ! R80   R(67,68)                1.6506         estimate D2E/DX2                !
 ! R81   R(67,72)                1.3472         estimate D2E/DX2                !
 ! R82   R(69,71)                1.0837         estimate D2E/DX2                !
 ! R83   R(71,73)                1.3876         estimate D2E/DX2                !
 ! R84   R(72,73)                1.4383         estimate D2E/DX2                !
 ! R85   R(74,75)                1.3599         estimate D2E/DX2                !
 ! R86   R(74,76)                1.7503         estimate D2E/DX2                !
 ! R87   R(74,124)               1.0792         estimate D2E/DX2                !
 ! R88   R(75,94)                1.4438         estimate D2E/DX2                !
 ! R89   R(75,120)               1.0814         estimate D2E/DX2                !
 ! R90   R(76,95)                1.7549         estimate D2E/DX2                !
 ! R91   R(77,78)                1.4163         estimate D2E/DX2                !
 ! R92   R(77,82)                1.3885         estimate D2E/DX2                !
 ! R93   R(77,86)                1.5345         estimate D2E/DX2                !
 ! R94   R(78,79)                1.4006         estimate D2E/DX2                !
 ! R95   R(78,88)                1.4698         estimate D2E/DX2                !
 ! R96   R(79,80)                1.3888         estimate D2E/DX2                !
 ! R97   R(79,102)               1.0848         estimate D2E/DX2                !
 ! R98   R(80,81)                1.4163         estimate D2E/DX2                !
 ! R99   R(80,83)                1.5344         estimate D2E/DX2                !
 ! R100  R(81,82)                1.401          estimate D2E/DX2                !
 ! R101  R(81,85)                1.4683         estimate D2E/DX2                !
 ! R102  R(82,101)               1.0848         estimate D2E/DX2                !
 ! R103  R(83,84)                1.5346         estimate D2E/DX2                !
 ! R104  R(83,97)                1.5489         estimate D2E/DX2                !
 ! R105  R(83,98)                1.5489         estimate D2E/DX2                !
 ! R106  R(84,85)                1.4258         estimate D2E/DX2                !
 ! R107  R(84,89)                1.3788         estimate D2E/DX2                !
 ! R108  R(85,92)                1.3922         estimate D2E/DX2                !
 ! R109  R(86,87)                1.5347         estimate D2E/DX2                !
 ! R110  R(86,99)                1.5489         estimate D2E/DX2                !
 ! R111  R(86,100)               1.5489         estimate D2E/DX2                !
 ! R112  R(87,88)                1.4248         estimate D2E/DX2                !
 ! R113  R(87,93)                1.3798         estimate D2E/DX2                !
 ! R114  R(88,96)                1.3906         estimate D2E/DX2                !
 ! R115  R(89,90)                1.4137         estimate D2E/DX2                !
 ! R116  R(89,105)               1.0846         estimate D2E/DX2                !
 ! R117  R(90,91)                1.4254         estimate D2E/DX2                !
 ! R118  R(90,122)               1.4324         estimate D2E/DX2                !
 ! R119  R(91,92)                1.3966         estimate D2E/DX2                !
 ! R120  R(91,121)               1.7505         estimate D2E/DX2                !
 ! R121  R(92,106)               1.0837         estimate D2E/DX2                !
 ! R122  R(93,94)                1.4118         estimate D2E/DX2                !
 ! R123  R(93,103)               1.0848         estimate D2E/DX2                !
 ! R124  R(94,95)                1.4246         estimate D2E/DX2                !
 ! R125  R(95,96)                1.3985         estimate D2E/DX2                !
 ! R126  R(96,104)               1.0838         estimate D2E/DX2                !
 ! R127  R(97,107)               1.0959         estimate D2E/DX2                !
 ! R128  R(97,108)               1.0959         estimate D2E/DX2                !
 ! R129  R(97,109)               1.0936         estimate D2E/DX2                !
 ! R130  R(98,110)               1.0936         estimate D2E/DX2                !
 ! R131  R(98,111)               1.0959         estimate D2E/DX2                !
 ! R132  R(98,112)               1.0959         estimate D2E/DX2                !
 ! R133  R(99,116)               1.096          estimate D2E/DX2                !
 ! R134  R(99,117)               1.0959         estimate D2E/DX2                !
 ! R135  R(99,118)               1.0936         estimate D2E/DX2                !
 ! R136  R(100,113)              1.0959         estimate D2E/DX2                !
 ! R137  R(100,114)              1.0936         estimate D2E/DX2                !
 ! R138  R(100,115)              1.0959         estimate D2E/DX2                !
 ! R139  R(119,122)              1.0789         estimate D2E/DX2                !
 ! R140  R(121,123)              1.7787         estimate D2E/DX2                !
 ! R141  R(122,123)              1.3739         estimate D2E/DX2                !
 ! A1    A(2,1,3)              116.0764         estimate D2E/DX2                !
 ! A2    A(2,1,62)             121.8865         estimate D2E/DX2                !
 ! A3    A(3,1,62)             122.0372         estimate D2E/DX2                !
 ! A4    A(1,2,4)              126.9591         estimate D2E/DX2                !
 ! A5    A(1,2,10)             120.2252         estimate D2E/DX2                !
 ! A6    A(4,2,10)             112.8157         estimate D2E/DX2                !
 ! A7    A(1,3,8)              119.0199         estimate D2E/DX2                !
 ! A8    A(1,3,9)              123.288          estimate D2E/DX2                !
 ! A9    A(8,3,9)              117.6921         estimate D2E/DX2                !
 ! A10   A(2,4,6)              107.408          estimate D2E/DX2                !
 ! A11   A(6,5,10)             107.0497         estimate D2E/DX2                !
 ! A12   A(4,6,5)               99.3019         estimate D2E/DX2                !
 ! A13   A(3,9,7)              118.2026         estimate D2E/DX2                !
 ! A14   A(3,9,11)             121.8752         estimate D2E/DX2                !
 ! A15   A(7,9,11)             119.9221         estimate D2E/DX2                !
 ! A16   A(2,10,5)             113.4247         estimate D2E/DX2                !
 ! A17   A(2,10,11)            120.7008         estimate D2E/DX2                !
 ! A18   A(5,10,11)            125.8746         estimate D2E/DX2                !
 ! A19   A(9,11,10)            117.8344         estimate D2E/DX2                !
 ! A20   A(9,11,12)            122.6001         estimate D2E/DX2                !
 ! A21   A(10,11,12)           119.5655         estimate D2E/DX2                !
 ! A22   A(14,13,15)           111.3297         estimate D2E/DX2                !
 ! A23   A(14,13,73)           128.5037         estimate D2E/DX2                !
 ! A24   A(15,13,73)           120.1666         estimate D2E/DX2                !
 ! A25   A(13,14,33)           113.9588         estimate D2E/DX2                !
 ! A26   A(13,14,59)           121.6292         estimate D2E/DX2                !
 ! A27   A(33,14,59)           124.412          estimate D2E/DX2                !
 ! A28   A(13,15,34)            91.4823         estimate D2E/DX2                !
 ! A29   A(17,16,21)           120.8129         estimate D2E/DX2                !
 ! A30   A(17,16,25)           110.8254         estimate D2E/DX2                !
 ! A31   A(21,16,25)           128.3617         estimate D2E/DX2                !
 ! A32   A(16,17,18)           121.0752         estimate D2E/DX2                !
 ! A33   A(16,17,27)           108.68           estimate D2E/DX2                !
 ! A34   A(18,17,27)           130.2448         estimate D2E/DX2                !
 ! A35   A(17,18,19)           118.1106         estimate D2E/DX2                !
 ! A36   A(17,18,41)           120.8068         estimate D2E/DX2                !
 ! A37   A(19,18,41)           121.0826         estimate D2E/DX2                !
 ! A38   A(18,19,20)           120.8119         estimate D2E/DX2                !
 ! A39   A(18,19,22)           128.3613         estimate D2E/DX2                !
 ! A40   A(20,19,22)           110.8268         estimate D2E/DX2                !
 ! A41   A(19,20,21)           121.0792         estimate D2E/DX2                !
 ! A42   A(19,20,24)           108.6765         estimate D2E/DX2                !
 ! A43   A(21,20,24)           130.2443         estimate D2E/DX2                !
 ! A44   A(16,21,20)           118.1101         estimate D2E/DX2                !
 ! A45   A(16,21,40)           121.0837         estimate D2E/DX2                !
 ! A46   A(20,21,40)           120.8062         estimate D2E/DX2                !
 ! A47   A(19,22,23)           101.4553         estimate D2E/DX2                !
 ! A48   A(19,22,36)           110.942          estimate D2E/DX2                !
 ! A49   A(19,22,37)           110.9401         estimate D2E/DX2                !
 ! A50   A(23,22,36)           110.9876         estimate D2E/DX2                !
 ! A51   A(23,22,37)           110.9855         estimate D2E/DX2                !
 ! A52   A(36,22,37)           111.1671         estimate D2E/DX2                !
 ! A53   A(22,23,24)           110.4795         estimate D2E/DX2                !
 ! A54   A(22,23,28)           128.5653         estimate D2E/DX2                !
 ! A55   A(24,23,28)           120.9552         estimate D2E/DX2                !
 ! A56   A(20,24,23)           108.562          estimate D2E/DX2                !
 ! A57   A(20,24,31)           130.1399         estimate D2E/DX2                !
 ! A58   A(23,24,31)           121.2981         estimate D2E/DX2                !
 ! A59   A(16,25,26)           101.4556         estimate D2E/DX2                !
 ! A60   A(16,25,38)           110.9388         estimate D2E/DX2                !
 ! A61   A(16,25,39)           110.943          estimate D2E/DX2                !
 ! A62   A(26,25,38)           110.9831         estimate D2E/DX2                !
 ! A63   A(26,25,39)           110.9874         estimate D2E/DX2                !
 ! A64   A(38,25,39)           111.1695         estimate D2E/DX2                !
 ! A65   A(25,26,27)           110.4718         estimate D2E/DX2                !
 ! A66   A(25,26,32)           128.5648         estimate D2E/DX2                !
 ! A67   A(27,26,32)           120.9634         estimate D2E/DX2                !
 ! A68   A(17,27,26)           108.5672         estimate D2E/DX2                !
 ! A69   A(17,27,35)           130.1439         estimate D2E/DX2                !
 ! A70   A(26,27,35)           121.2889         estimate D2E/DX2                !
 ! A71   A(23,28,29)           118.8383         estimate D2E/DX2                !
 ! A72   A(23,28,44)           121.5118         estimate D2E/DX2                !
 ! A73   A(29,28,44)           119.6499         estimate D2E/DX2                !
 ! A74   A(28,29,30)           119.4519         estimate D2E/DX2                !
 ! A75   A(28,29,61)           128.4747         estimate D2E/DX2                !
 ! A76   A(30,29,61)           112.0734         estimate D2E/DX2                !
 ! A77   A(29,30,31)           121.8826         estimate D2E/DX2                !
 ! A78   A(29,30,60)           111.1277         estimate D2E/DX2                !
 ! A79   A(31,30,60)           126.9898         estimate D2E/DX2                !
 ! A80   A(24,31,30)           117.5739         estimate D2E/DX2                !
 ! A81   A(24,31,45)           121.2835         estimate D2E/DX2                !
 ! A82   A(30,31,45)           121.1426         estimate D2E/DX2                !
 ! A83   A(26,32,33)           118.8468         estimate D2E/DX2                !
 ! A84   A(26,32,42)           121.5097         estimate D2E/DX2                !
 ! A85   A(33,32,42)           119.6435         estimate D2E/DX2                !
 ! A86   A(14,33,32)           128.4694         estimate D2E/DX2                !
 ! A87   A(14,33,34)           112.107          estimate D2E/DX2                !
 ! A88   A(32,33,34)           119.4237         estimate D2E/DX2                !
 ! A89   A(15,34,33)           111.1223         estimate D2E/DX2                !
 ! A90   A(15,34,35)           126.9807         estimate D2E/DX2                !
 ! A91   A(33,34,35)           121.8971         estimate D2E/DX2                !
 ! A92   A(27,35,34)           117.5802         estimate D2E/DX2                !
 ! A93   A(27,35,43)           121.2786         estimate D2E/DX2                !
 ! A94   A(34,35,43)           121.1412         estimate D2E/DX2                !
 ! A95   A(22,36,46)           110.2173         estimate D2E/DX2                !
 ! A96   A(22,36,47)           110.1942         estimate D2E/DX2                !
 ! A97   A(22,36,48)           110.2304         estimate D2E/DX2                !
 ! A98   A(46,36,47)           108.4493         estimate D2E/DX2                !
 ! A99   A(46,36,48)           108.8581         estimate D2E/DX2                !
 ! A100  A(47,36,48)           108.8473         estimate D2E/DX2                !
 ! A101  A(22,37,49)           110.2303         estimate D2E/DX2                !
 ! A102  A(22,37,50)           110.1939         estimate D2E/DX2                !
 ! A103  A(22,37,51)           110.2175         estimate D2E/DX2                !
 ! A104  A(49,37,50)           108.8478         estimate D2E/DX2                !
 ! A105  A(49,37,51)           108.8573         estimate D2E/DX2                !
 ! A106  A(50,37,51)           108.4497         estimate D2E/DX2                !
 ! A107  A(25,38,55)           110.2162         estimate D2E/DX2                !
 ! A108  A(25,38,56)           110.1952         estimate D2E/DX2                !
 ! A109  A(25,38,57)           110.2286         estimate D2E/DX2                !
 ! A110  A(55,38,56)           108.4513         estimate D2E/DX2                !
 ! A111  A(55,38,57)           108.8572         estimate D2E/DX2                !
 ! A112  A(56,38,57)           108.8481         estimate D2E/DX2                !
 ! A113  A(25,39,52)           110.2164         estimate D2E/DX2                !
 ! A114  A(25,39,53)           110.2288         estimate D2E/DX2                !
 ! A115  A(25,39,54)           110.1966         estimate D2E/DX2                !
 ! A116  A(52,39,53)           108.8564         estimate D2E/DX2                !
 ! A117  A(52,39,54)           108.4507         estimate D2E/DX2                !
 ! A118  A(53,39,54)           108.8477         estimate D2E/DX2                !
 ! A119  A(30,60,62)            91.4575         estimate D2E/DX2                !
 ! A120  A(29,61,58)           124.4696         estimate D2E/DX2                !
 ! A121  A(29,61,62)           113.9332         estimate D2E/DX2                !
 ! A122  A(58,61,62)           121.5972         estimate D2E/DX2                !
 ! A123  A(1,62,60)            120.2922         estimate D2E/DX2                !
 ! A124  A(1,62,61)            128.2995         estimate D2E/DX2                !
 ! A125  A(60,62,61)           111.4083         estimate D2E/DX2                !
 ! A126  A(64,63,65)           115.3448         estimate D2E/DX2                !
 ! A127  A(64,63,123)          122.4023         estimate D2E/DX2                !
 ! A128  A(65,63,123)          122.2529         estimate D2E/DX2                !
 ! A129  A(63,64,66)           126.1545         estimate D2E/DX2                !
 ! A130  A(63,64,72)           121.061          estimate D2E/DX2                !
 ! A131  A(66,64,72)           112.7846         estimate D2E/DX2                !
 ! A132  A(63,65,70)           119.0155         estimate D2E/DX2                !
 ! A133  A(63,65,71)           123.5917         estimate D2E/DX2                !
 ! A134  A(70,65,71)           117.3929         estimate D2E/DX2                !
 ! A135  A(64,66,68)           107.8252         estimate D2E/DX2                !
 ! A136  A(68,67,72)           107.8211         estimate D2E/DX2                !
 ! A137  A(66,68,67)            98.7822         estimate D2E/DX2                !
 ! A138  A(65,71,69)           117.3861         estimate D2E/DX2                !
 ! A139  A(65,71,73)           123.5973         estimate D2E/DX2                !
 ! A140  A(69,71,73)           119.0166         estimate D2E/DX2                !
 ! A141  A(64,72,67)           112.787          estimate D2E/DX2                !
 ! A142  A(64,72,73)           121.0558         estimate D2E/DX2                !
 ! A143  A(67,72,73)           126.1572         estimate D2E/DX2                !
 ! A144  A(13,73,71)           122.2549         estimate D2E/DX2                !
 ! A145  A(13,73,72)           122.3957         estimate D2E/DX2                !
 ! A146  A(71,73,72)           115.3495         estimate D2E/DX2                !
 ! A147  A(75,74,76)           113.165          estimate D2E/DX2                !
 ! A148  A(75,74,124)          127.1997         estimate D2E/DX2                !
 ! A149  A(76,74,124)          119.6353         estimate D2E/DX2                !
 ! A150  A(74,75,94)           113.0175         estimate D2E/DX2                !
 ! A151  A(74,75,120)          123.6641         estimate D2E/DX2                !
 ! A152  A(94,75,120)          123.3184         estimate D2E/DX2                !
 ! A153  A(74,76,95)            91.1016         estimate D2E/DX2                !
 ! A154  A(78,77,82)           120.8215         estimate D2E/DX2                !
 ! A155  A(78,77,86)           110.8245         estimate D2E/DX2                !
 ! A156  A(82,77,86)           128.354          estimate D2E/DX2                !
 ! A157  A(77,78,79)           121.0715         estimate D2E/DX2                !
 ! A158  A(77,78,88)           108.6627         estimate D2E/DX2                !
 ! A159  A(79,78,88)           130.2659         estimate D2E/DX2                !
 ! A160  A(78,79,80)           118.1184         estimate D2E/DX2                !
 ! A161  A(78,79,102)          120.8036         estimate D2E/DX2                !
 ! A162  A(80,79,102)          121.078          estimate D2E/DX2                !
 ! A163  A(79,80,81)           120.8122         estimate D2E/DX2                !
 ! A164  A(79,80,83)           128.3588         estimate D2E/DX2                !
 ! A165  A(81,80,83)           110.829          estimate D2E/DX2                !
 ! A166  A(80,81,82)           121.0642         estimate D2E/DX2                !
 ! A167  A(80,81,85)           108.6856         estimate D2E/DX2                !
 ! A168  A(82,81,85)           130.2502         estimate D2E/DX2                !
 ! A169  A(77,82,81)           118.1123         estimate D2E/DX2                !
 ! A170  A(77,82,101)          121.0858         estimate D2E/DX2                !
 ! A171  A(81,82,101)          120.8019         estimate D2E/DX2                !
 ! A172  A(80,83,84)           101.4575         estimate D2E/DX2                !
 ! A173  A(80,83,97)           110.9543         estimate D2E/DX2                !
 ! A174  A(80,83,98)           110.9545         estimate D2E/DX2                !
 ! A175  A(84,83,97)           110.9763         estimate D2E/DX2                !
 ! A176  A(84,83,98)           110.9769         estimate D2E/DX2                !
 ! A177  A(97,83,98)           111.1593         estimate D2E/DX2                !
 ! A178  A(83,84,85)           110.4661         estimate D2E/DX2                !
 ! A179  A(83,84,89)           128.5673         estimate D2E/DX2                !
 ! A180  A(85,84,89)           120.9666         estimate D2E/DX2                !
 ! A181  A(81,85,84)           108.5619         estimate D2E/DX2                !
 ! A182  A(81,85,92)           130.1525         estimate D2E/DX2                !
 ! A183  A(84,85,92)           121.2856         estimate D2E/DX2                !
 ! A184  A(77,86,87)           101.4663         estimate D2E/DX2                !
 ! A185  A(77,86,99)           110.9429         estimate D2E/DX2                !
 ! A186  A(77,86,100)          110.9469         estimate D2E/DX2                !
 ! A187  A(87,86,99)           110.9828         estimate D2E/DX2                !
 ! A188  A(87,86,100)          110.9842         estimate D2E/DX2                !
 ! A189  A(99,86,100)          111.1565         estimate D2E/DX2                !
 ! A190  A(86,87,88)           110.4996         estimate D2E/DX2                !
 ! A191  A(86,87,93)           128.519          estimate D2E/DX2                !
 ! A192  A(88,87,93)           120.9814         estimate D2E/DX2                !
 ! A193  A(78,88,87)           108.547          estimate D2E/DX2                !
 ! A194  A(78,88,96)           130.1984         estimate D2E/DX2                !
 ! A195  A(87,88,96)           121.2547         estimate D2E/DX2                !
 ! A196  A(84,89,90)           118.8473         estimate D2E/DX2                !
 ! A197  A(84,89,105)          121.5009         estimate D2E/DX2                !
 ! A198  A(90,89,105)          119.6518         estimate D2E/DX2                !
 ! A199  A(89,90,91)           119.4207         estimate D2E/DX2                !
 ! A200  A(89,90,122)          128.4733         estimate D2E/DX2                !
 ! A201  A(91,90,122)          112.1059         estimate D2E/DX2                !
 ! A202  A(90,91,92)           121.8971         estimate D2E/DX2                !
 ! A203  A(90,91,121)          111.1249         estimate D2E/DX2                !
 ! A204  A(92,91,121)          126.978          estimate D2E/DX2                !
 ! A205  A(85,92,91)           117.5826         estimate D2E/DX2                !
 ! A206  A(85,92,106)          121.2787         estimate D2E/DX2                !
 ! A207  A(91,92,106)          121.1387         estimate D2E/DX2                !
 ! A208  A(87,93,94)           118.8436         estimate D2E/DX2                !
 ! A209  A(87,93,103)          121.3841         estimate D2E/DX2                !
 ! A210  A(94,93,103)          119.7723         estimate D2E/DX2                !
 ! A211  A(75,94,93)           128.8603         estimate D2E/DX2                !
 ! A212  A(75,94,95)           111.6566         estimate D2E/DX2                !
 ! A213  A(93,94,95)           119.4831         estimate D2E/DX2                !
 ! A214  A(76,95,94)           111.0593         estimate D2E/DX2                !
 ! A215  A(76,95,96)           127.1434         estimate D2E/DX2                !
 ! A216  A(94,95,96)           121.7973         estimate D2E/DX2                !
 ! A217  A(88,96,95)           117.6399         estimate D2E/DX2                !
 ! A218  A(88,96,104)          121.3045         estimate D2E/DX2                !
 ! A219  A(95,96,104)          121.0556         estimate D2E/DX2                !
 ! A220  A(83,97,107)          110.2186         estimate D2E/DX2                !
 ! A221  A(83,97,108)          110.1966         estimate D2E/DX2                !
 ! A222  A(83,97,109)          110.2286         estimate D2E/DX2                !
 ! A223  A(107,97,108)         108.4493         estimate D2E/DX2                !
 ! A224  A(107,97,109)         108.8549         estimate D2E/DX2                !
 ! A225  A(108,97,109)         108.8485         estimate D2E/DX2                !
 ! A226  A(83,98,110)          110.2288         estimate D2E/DX2                !
 ! A227  A(83,98,111)          110.1954         estimate D2E/DX2                !
 ! A228  A(83,98,112)          110.2191         estimate D2E/DX2                !
 ! A229  A(110,98,111)         108.8498         estimate D2E/DX2                !
 ! A230  A(110,98,112)         108.8544         estimate D2E/DX2                !
 ! A231  A(111,98,112)         108.449          estimate D2E/DX2                !
 ! A232  A(86,99,116)          110.236          estimate D2E/DX2                !
 ! A233  A(86,99,117)          110.1937         estimate D2E/DX2                !
 ! A234  A(86,99,118)          110.22           estimate D2E/DX2                !
 ! A235  A(116,99,117)         108.4429         estimate D2E/DX2                !
 ! A236  A(116,99,118)         108.8559         estimate D2E/DX2                !
 ! A237  A(117,99,118)         108.8479         estimate D2E/DX2                !
 ! A238  A(86,100,113)         110.2351         estimate D2E/DX2                !
 ! A239  A(86,100,114)         110.2202         estimate D2E/DX2                !
 ! A240  A(86,100,115)         110.195          estimate D2E/DX2                !
 ! A241  A(113,100,114)        108.856          estimate D2E/DX2                !
 ! A242  A(113,100,115)        108.4425         estimate D2E/DX2                !
 ! A243  A(114,100,115)        108.8475         estimate D2E/DX2                !
 ! A244  A(91,121,123)          91.4807         estimate D2E/DX2                !
 ! A245  A(90,122,119)         124.4077         estimate D2E/DX2                !
 ! A246  A(90,122,123)         113.9641         estimate D2E/DX2                !
 ! A247  A(119,122,123)        121.6282         estimate D2E/DX2                !
 ! A248  A(63,123,121)         120.1698         estimate D2E/DX2                !
 ! A249  A(63,123,122)         128.5058         estimate D2E/DX2                !
 ! A250  A(121,123,122)        111.3244         estimate D2E/DX2                !
 ! D1    D(3,1,2,4)            179.9995         estimate D2E/DX2                !
 ! D2    D(3,1,2,10)             0.0031         estimate D2E/DX2                !
 ! D3    D(62,1,2,4)            -0.0043         estimate D2E/DX2                !
 ! D4    D(62,1,2,10)          179.9992         estimate D2E/DX2                !
 ! D5    D(2,1,3,8)            179.9985         estimate D2E/DX2                !
 ! D6    D(2,1,3,9)             -0.0012         estimate D2E/DX2                !
 ! D7    D(62,1,3,8)             0.0023         estimate D2E/DX2                !
 ! D8    D(62,1,3,9)          -179.9974         estimate D2E/DX2                !
 ! D9    D(2,1,62,60)         -179.9958         estimate D2E/DX2                !
 ! D10   D(2,1,62,61)            0.0155         estimate D2E/DX2                !
 ! D11   D(3,1,62,60)            0.0002         estimate D2E/DX2                !
 ! D12   D(3,1,62,61)         -179.9886         estimate D2E/DX2                !
 ! D13   D(1,2,4,6)            179.9989         estimate D2E/DX2                !
 ! D14   D(10,2,4,6)            -0.0044         estimate D2E/DX2                !
 ! D15   D(1,2,10,5)          -179.9991         estimate D2E/DX2                !
 ! D16   D(1,2,10,11)           -0.0021         estimate D2E/DX2                !
 ! D17   D(4,2,10,5)             0.004          estimate D2E/DX2                !
 ! D18   D(4,2,10,11)         -179.999          estimate D2E/DX2                !
 ! D19   D(1,3,9,7)           -179.9991         estimate D2E/DX2                !
 ! D20   D(1,3,9,11)            -0.0018         estimate D2E/DX2                !
 ! D21   D(8,3,9,7)              0.0011         estimate D2E/DX2                !
 ! D22   D(8,3,9,11)           179.9984         estimate D2E/DX2                !
 ! D23   D(2,4,6,5)              0.0032         estimate D2E/DX2                !
 ! D24   D(10,5,6,4)            -0.001          estimate D2E/DX2                !
 ! D25   D(6,5,10,2)            -0.0014         estimate D2E/DX2                !
 ! D26   D(6,5,10,11)         -179.9983         estimate D2E/DX2                !
 ! D27   D(3,9,11,10)            0.0029         estimate D2E/DX2                !
 ! D28   D(3,9,11,12)         -179.9977         estimate D2E/DX2                !
 ! D29   D(7,9,11,10)         -179.9999         estimate D2E/DX2                !
 ! D30   D(7,9,11,12)           -0.0004         estimate D2E/DX2                !
 ! D31   D(2,10,11,9)           -0.001          estimate D2E/DX2                !
 ! D32   D(2,10,11,12)         179.9996         estimate D2E/DX2                !
 ! D33   D(5,10,11,9)          179.9957         estimate D2E/DX2                !
 ! D34   D(5,10,11,12)          -0.0038         estimate D2E/DX2                !
 ! D35   D(15,13,14,33)         -0.0013         estimate D2E/DX2                !
 ! D36   D(15,13,14,59)        179.9995         estimate D2E/DX2                !
 ! D37   D(73,13,14,33)       -179.9983         estimate D2E/DX2                !
 ! D38   D(73,13,14,59)          0.0025         estimate D2E/DX2                !
 ! D39   D(14,13,15,34)          0.0011         estimate D2E/DX2                !
 ! D40   D(73,13,15,34)        179.9984         estimate D2E/DX2                !
 ! D41   D(14,13,73,71)       -179.9947         estimate D2E/DX2                !
 ! D42   D(14,13,73,72)          0.0093         estimate D2E/DX2                !
 ! D43   D(15,13,73,71)          0.0086         estimate D2E/DX2                !
 ! D44   D(15,13,73,72)       -179.9874         estimate D2E/DX2                !
 ! D45   D(13,14,33,32)        179.9985         estimate D2E/DX2                !
 ! D46   D(13,14,33,34)          0.0008         estimate D2E/DX2                !
 ! D47   D(59,14,33,32)         -0.0023         estimate D2E/DX2                !
 ! D48   D(59,14,33,34)        180.0            estimate D2E/DX2                !
 ! D49   D(13,15,34,33)         -0.0007         estimate D2E/DX2                !
 ! D50   D(13,15,34,35)       -179.9979         estimate D2E/DX2                !
 ! D51   D(21,16,17,18)         -0.0003         estimate D2E/DX2                !
 ! D52   D(21,16,17,27)       -179.9968         estimate D2E/DX2                !
 ! D53   D(25,16,17,18)        179.999          estimate D2E/DX2                !
 ! D54   D(25,16,17,27)          0.0026         estimate D2E/DX2                !
 ! D55   D(17,16,21,20)          0.0008         estimate D2E/DX2                !
 ! D56   D(17,16,21,40)        179.9995         estimate D2E/DX2                !
 ! D57   D(25,16,21,20)       -179.9984         estimate D2E/DX2                !
 ! D58   D(25,16,21,40)          0.0003         estimate D2E/DX2                !
 ! D59   D(17,16,25,26)         -0.0044         estimate D2E/DX2                !
 ! D60   D(17,16,25,38)        117.9485         estimate D2E/DX2                !
 ! D61   D(17,16,25,39)       -117.964          estimate D2E/DX2                !
 ! D62   D(21,16,25,26)        179.9949         estimate D2E/DX2                !
 ! D63   D(21,16,25,38)        -62.0522         estimate D2E/DX2                !
 ! D64   D(21,16,25,39)         62.0352         estimate D2E/DX2                !
 ! D65   D(16,17,18,19)         -0.0002         estimate D2E/DX2                !
 ! D66   D(16,17,18,41)       -179.9999         estimate D2E/DX2                !
 ! D67   D(27,17,18,19)        179.9954         estimate D2E/DX2                !
 ! D68   D(27,17,18,41)         -0.0043         estimate D2E/DX2                !
 ! D69   D(16,17,27,26)          0.0006         estimate D2E/DX2                !
 ! D70   D(16,17,27,35)        179.9975         estimate D2E/DX2                !
 ! D71   D(18,17,27,26)       -179.9954         estimate D2E/DX2                !
 ! D72   D(18,17,27,35)          0.0015         estimate D2E/DX2                !
 ! D73   D(17,18,19,20)          0.0002         estimate D2E/DX2                !
 ! D74   D(17,18,19,22)       -179.9969         estimate D2E/DX2                !
 ! D75   D(41,18,19,20)        179.9999         estimate D2E/DX2                !
 ! D76   D(41,18,19,22)          0.0028         estimate D2E/DX2                !
 ! D77   D(18,19,20,21)          0.0003         estimate D2E/DX2                !
 ! D78   D(18,19,20,24)       -179.9984         estimate D2E/DX2                !
 ! D79   D(22,19,20,21)        179.9979         estimate D2E/DX2                !
 ! D80   D(22,19,20,24)         -0.0008         estimate D2E/DX2                !
 ! D81   D(18,19,22,23)        179.9979         estimate D2E/DX2                !
 ! D82   D(18,19,22,36)        -62.0428         estimate D2E/DX2                !
 ! D83   D(18,19,22,37)         62.0419         estimate D2E/DX2                !
 ! D84   D(20,19,22,23)          0.0006         estimate D2E/DX2                !
 ! D85   D(20,19,22,36)        117.9599         estimate D2E/DX2                !
 ! D86   D(20,19,22,37)       -117.9554         estimate D2E/DX2                !
 ! D87   D(19,20,21,16)         -0.0008         estimate D2E/DX2                !
 ! D88   D(19,20,21,40)       -179.9995         estimate D2E/DX2                !
 ! D89   D(24,20,21,16)        179.9976         estimate D2E/DX2                !
 ! D90   D(24,20,21,40)         -0.0011         estimate D2E/DX2                !
 ! D91   D(19,20,24,23)          0.0007         estimate D2E/DX2                !
 ! D92   D(19,20,24,31)       -179.9998         estimate D2E/DX2                !
 ! D93   D(21,20,24,23)       -179.9979         estimate D2E/DX2                !
 ! D94   D(21,20,24,31)          0.0017         estimate D2E/DX2                !
 ! D95   D(19,22,23,24)         -0.0002         estimate D2E/DX2                !
 ! D96   D(19,22,23,28)       -179.9993         estimate D2E/DX2                !
 ! D97   D(36,22,23,24)       -117.9265         estimate D2E/DX2                !
 ! D98   D(36,22,23,28)         62.0744         estimate D2E/DX2                !
 ! D99   D(37,22,23,24)        117.9231         estimate D2E/DX2                !
 ! D100  D(37,22,23,28)        -62.076          estimate D2E/DX2                !
 ! D101  D(19,22,36,46)         64.0977         estimate D2E/DX2                !
 ! D102  D(19,22,36,47)       -176.2466         estimate D2E/DX2                !
 ! D103  D(19,22,36,48)        -56.0885         estimate D2E/DX2                !
 ! D104  D(23,22,36,46)        176.0954         estimate D2E/DX2                !
 ! D105  D(23,22,36,47)        -64.2489         estimate D2E/DX2                !
 ! D106  D(23,22,36,48)         55.9092         estimate D2E/DX2                !
 ! D107  D(37,22,36,46)        -59.8575         estimate D2E/DX2                !
 ! D108  D(37,22,36,47)         59.7981         estimate D2E/DX2                !
 ! D109  D(37,22,36,48)        179.9562         estimate D2E/DX2                !
 ! D110  D(19,22,37,49)         56.0873         estimate D2E/DX2                !
 ! D111  D(19,22,37,50)        176.2458         estimate D2E/DX2                !
 ! D112  D(19,22,37,51)        -64.098          estimate D2E/DX2                !
 ! D113  D(23,22,37,49)        -55.9082         estimate D2E/DX2                !
 ! D114  D(23,22,37,50)         64.2502         estimate D2E/DX2                !
 ! D115  D(23,22,37,51)       -176.0936         estimate D2E/DX2                !
 ! D116  D(36,22,37,49)       -179.9564         estimate D2E/DX2                !
 ! D117  D(36,22,37,50)        -59.798          estimate D2E/DX2                !
 ! D118  D(36,22,37,51)         59.8582         estimate D2E/DX2                !
 ! D119  D(22,23,24,20)         -0.0003         estimate D2E/DX2                !
 ! D120  D(22,23,24,31)       -179.9998         estimate D2E/DX2                !
 ! D121  D(28,23,24,20)        179.9989         estimate D2E/DX2                !
 ! D122  D(28,23,24,31)         -0.0007         estimate D2E/DX2                !
 ! D123  D(22,23,28,29)        179.9986         estimate D2E/DX2                !
 ! D124  D(22,23,28,44)         -0.0019         estimate D2E/DX2                !
 ! D125  D(24,23,28,29)         -0.0004         estimate D2E/DX2                !
 ! D126  D(24,23,28,44)        179.9991         estimate D2E/DX2                !
 ! D127  D(20,24,31,30)       -179.9984         estimate D2E/DX2                !
 ! D128  D(20,24,31,45)          0.0029         estimate D2E/DX2                !
 ! D129  D(23,24,31,30)          0.0011         estimate D2E/DX2                !
 ! D130  D(23,24,31,45)       -179.9976         estimate D2E/DX2                !
 ! D131  D(16,25,26,27)          0.0047         estimate D2E/DX2                !
 ! D132  D(16,25,26,32)       -179.9942         estimate D2E/DX2                !
 ! D133  D(38,25,26,27)       -117.9162         estimate D2E/DX2                !
 ! D134  D(38,25,26,32)         62.0849         estimate D2E/DX2                !
 ! D135  D(39,25,26,27)        117.9323         estimate D2E/DX2                !
 ! D136  D(39,25,26,32)        -62.0666         estimate D2E/DX2                !
 ! D137  D(16,25,38,55)         64.0948         estimate D2E/DX2                !
 ! D138  D(16,25,38,56)       -176.247          estimate D2E/DX2                !
 ! D139  D(16,25,38,57)        -56.0885         estimate D2E/DX2                !
 ! D140  D(26,25,38,55)        176.0887         estimate D2E/DX2                !
 ! D141  D(26,25,38,56)        -64.2531         estimate D2E/DX2                !
 ! D142  D(26,25,38,57)         55.9054         estimate D2E/DX2                !
 ! D143  D(39,25,38,55)        -59.8635         estimate D2E/DX2                !
 ! D144  D(39,25,38,56)         59.7947         estimate D2E/DX2                !
 ! D145  D(39,25,38,57)        179.9532         estimate D2E/DX2                !
 ! D146  D(16,25,39,52)        -64.0923         estimate D2E/DX2                !
 ! D147  D(16,25,39,53)         56.0902         estimate D2E/DX2                !
 ! D148  D(16,25,39,54)        176.2492         estimate D2E/DX2                !
 ! D149  D(26,25,39,52)       -176.091          estimate D2E/DX2                !
 ! D150  D(26,25,39,53)        -55.9085         estimate D2E/DX2                !
 ! D151  D(26,25,39,54)         64.2505         estimate D2E/DX2                !
 ! D152  D(38,25,39,52)         59.8636         estimate D2E/DX2                !
 ! D153  D(38,25,39,53)       -179.9538         estimate D2E/DX2                !
 ! D154  D(38,25,39,54)        -59.7948         estimate D2E/DX2                !
 ! D155  D(25,26,27,17)         -0.0035         estimate D2E/DX2                !
 ! D156  D(25,26,27,35)        179.9992         estimate D2E/DX2                !
 ! D157  D(32,26,27,17)        179.9955         estimate D2E/DX2                !
 ! D158  D(32,26,27,35)         -0.0018         estimate D2E/DX2                !
 ! D159  D(25,26,32,33)        179.9986         estimate D2E/DX2                !
 ! D160  D(25,26,32,42)          0.0            estimate D2E/DX2                !
 ! D161  D(27,26,32,33)         -0.0002         estimate D2E/DX2                !
 ! D162  D(27,26,32,42)       -179.9988         estimate D2E/DX2                !
 ! D163  D(17,27,35,34)       -179.9941         estimate D2E/DX2                !
 ! D164  D(17,27,35,43)          0.0033         estimate D2E/DX2                !
 ! D165  D(26,27,35,34)          0.0025         estimate D2E/DX2                !
 ! D166  D(26,27,35,43)        179.9999         estimate D2E/DX2                !
 ! D167  D(23,28,29,30)          0.001          estimate D2E/DX2                !
 ! D168  D(23,28,29,61)       -179.9988         estimate D2E/DX2                !
 ! D169  D(44,28,29,30)       -179.9985         estimate D2E/DX2                !
 ! D170  D(44,28,29,61)          0.0017         estimate D2E/DX2                !
 ! D171  D(28,29,30,31)         -0.0006         estimate D2E/DX2                !
 ! D172  D(28,29,30,60)        179.996          estimate D2E/DX2                !
 ! D173  D(61,29,30,31)        179.9992         estimate D2E/DX2                !
 ! D174  D(61,29,30,60)         -0.0042         estimate D2E/DX2                !
 ! D175  D(28,29,61,58)          0.0022         estimate D2E/DX2                !
 ! D176  D(28,29,61,62)        179.9988         estimate D2E/DX2                !
 ! D177  D(30,29,61,58)       -179.9977         estimate D2E/DX2                !
 ! D178  D(30,29,61,62)         -0.0011         estimate D2E/DX2                !
 ! D179  D(29,30,31,24)         -0.0004         estimate D2E/DX2                !
 ! D180  D(29,30,31,45)        179.9983         estimate D2E/DX2                !
 ! D181  D(60,30,31,24)       -179.9965         estimate D2E/DX2                !
 ! D182  D(60,30,31,45)          0.0022         estimate D2E/DX2                !
 ! D183  D(29,30,60,62)          0.0062         estimate D2E/DX2                !
 ! D184  D(31,30,60,62)       -179.9974         estimate D2E/DX2                !
 ! D185  D(26,32,33,14)       -179.9963         estimate D2E/DX2                !
 ! D186  D(26,32,33,34)          0.0013         estimate D2E/DX2                !
 ! D187  D(42,32,33,14)          0.0024         estimate D2E/DX2                !
 ! D188  D(42,32,33,34)        179.9999         estimate D2E/DX2                !
 ! D189  D(14,33,34,15)          0.0001         estimate D2E/DX2                !
 ! D190  D(14,33,34,35)        179.9975         estimate D2E/DX2                !
 ! D191  D(32,33,34,15)       -179.9978         estimate D2E/DX2                !
 ! D192  D(32,33,34,35)         -0.0005         estimate D2E/DX2                !
 ! D193  D(15,34,35,27)        179.9955         estimate D2E/DX2                !
 ! D194  D(15,34,35,43)         -0.0018         estimate D2E/DX2                !
 ! D195  D(33,34,35,27)         -0.0015         estimate D2E/DX2                !
 ! D196  D(33,34,35,43)       -179.9988         estimate D2E/DX2                !
 ! D197  D(30,60,62,1)        -179.9974         estimate D2E/DX2                !
 ! D198  D(30,60,62,61)         -0.0068         estimate D2E/DX2                !
 ! D199  D(29,61,62,1)         179.9953         estimate D2E/DX2                !
 ! D200  D(29,61,62,60)          0.0057         estimate D2E/DX2                !
 ! D201  D(58,61,62,1)          -0.008          estimate D2E/DX2                !
 ! D202  D(58,61,62,60)       -179.9976         estimate D2E/DX2                !
 ! D203  D(65,63,64,66)       -179.9901         estimate D2E/DX2                !
 ! D204  D(65,63,64,72)          0.0025         estimate D2E/DX2                !
 ! D205  D(123,63,64,66)         0.0073         estimate D2E/DX2                !
 ! D206  D(123,63,64,72)       179.9999         estimate D2E/DX2                !
 ! D207  D(64,63,65,70)        179.9992         estimate D2E/DX2                !
 ! D208  D(64,63,65,71)         -0.0048         estimate D2E/DX2                !
 ! D209  D(123,63,65,70)         0.0018         estimate D2E/DX2                !
 ! D210  D(123,63,65,71)       179.9978         estimate D2E/DX2                !
 ! D211  D(64,63,123,121)     -179.9815         estimate D2E/DX2                !
 ! D212  D(64,63,123,122)        0.0181         estimate D2E/DX2                !
 ! D213  D(65,63,123,121)        0.0157         estimate D2E/DX2                !
 ! D214  D(65,63,123,122)     -179.9847         estimate D2E/DX2                !
 ! D215  D(63,64,66,68)        179.9997         estimate D2E/DX2                !
 ! D216  D(72,64,66,68)          0.0065         estimate D2E/DX2                !
 ! D217  D(63,64,72,67)        179.9982         estimate D2E/DX2                !
 ! D218  D(63,64,72,73)          0.0029         estimate D2E/DX2                !
 ! D219  D(66,64,72,67)         -0.0082         estimate D2E/DX2                !
 ! D220  D(66,64,72,73)        179.9964         estimate D2E/DX2                !
 ! D221  D(63,65,71,69)       -179.9983         estimate D2E/DX2                !
 ! D222  D(63,65,71,73)          0.0017         estimate D2E/DX2                !
 ! D223  D(70,65,71,69)         -0.0022         estimate D2E/DX2                !
 ! D224  D(70,65,71,73)        179.9978         estimate D2E/DX2                !
 ! D225  D(64,66,68,67)         -0.0029         estimate D2E/DX2                !
 ! D226  D(72,67,68,66)         -0.0017         estimate D2E/DX2                !
 ! D227  D(68,67,72,64)          0.0056         estimate D2E/DX2                !
 ! D228  D(68,67,72,73)       -179.9993         estimate D2E/DX2                !
 ! D229  D(65,71,73,13)       -179.9925         estimate D2E/DX2                !
 ! D230  D(65,71,73,72)          0.0038         estimate D2E/DX2                !
 ! D231  D(69,71,73,13)          0.0075         estimate D2E/DX2                !
 ! D232  D(69,71,73,72)       -179.9962         estimate D2E/DX2                !
 ! D233  D(64,72,73,13)        179.9904         estimate D2E/DX2                !
 ! D234  D(64,72,73,71)         -0.0058         estimate D2E/DX2                !
 ! D235  D(67,72,73,13)         -0.0043         estimate D2E/DX2                !
 ! D236  D(67,72,73,71)        179.9995         estimate D2E/DX2                !
 ! D237  D(76,74,75,94)          0.0008         estimate D2E/DX2                !
 ! D238  D(76,74,75,120)      -179.9996         estimate D2E/DX2                !
 ! D239  D(124,74,75,94)       179.9999         estimate D2E/DX2                !
 ! D240  D(124,74,75,120)       -0.0005         estimate D2E/DX2                !
 ! D241  D(75,74,76,95)         -0.0005         estimate D2E/DX2                !
 ! D242  D(124,74,76,95)      -179.9997         estimate D2E/DX2                !
 ! D243  D(74,75,94,93)       -180.0            estimate D2E/DX2                !
 ! D244  D(74,75,94,95)         -0.0008         estimate D2E/DX2                !
 ! D245  D(120,75,94,93)         0.0004         estimate D2E/DX2                !
 ! D246  D(120,75,94,95)       179.9997         estimate D2E/DX2                !
 ! D247  D(74,76,95,94)          0.0001         estimate D2E/DX2                !
 ! D248  D(74,76,95,96)        179.9997         estimate D2E/DX2                !
 ! D249  D(82,77,78,79)         -0.0008         estimate D2E/DX2                !
 ! D250  D(82,77,78,88)        179.9984         estimate D2E/DX2                !
 ! D251  D(86,77,78,79)        179.9996         estimate D2E/DX2                !
 ! D252  D(86,77,78,88)         -0.0012         estimate D2E/DX2                !
 ! D253  D(78,77,82,81)         -0.0006         estimate D2E/DX2                !
 ! D254  D(78,77,82,101)      -179.9991         estimate D2E/DX2                !
 ! D255  D(86,77,82,81)        179.999          estimate D2E/DX2                !
 ! D256  D(86,77,82,101)         0.0004         estimate D2E/DX2                !
 ! D257  D(78,77,86,87)          0.0022         estimate D2E/DX2                !
 ! D258  D(78,77,86,99)       -117.9578         estimate D2E/DX2                !
 ! D259  D(78,77,86,100)       117.9656         estimate D2E/DX2                !
 ! D260  D(82,77,86,87)       -179.9974         estimate D2E/DX2                !
 ! D261  D(82,77,86,99)         62.0426         estimate D2E/DX2                !
 ! D262  D(82,77,86,100)       -62.0339         estimate D2E/DX2                !
 ! D263  D(77,78,79,80)          0.0008         estimate D2E/DX2                !
 ! D264  D(77,78,79,102)      -179.9991         estimate D2E/DX2                !
 ! D265  D(88,78,79,80)       -179.9982         estimate D2E/DX2                !
 ! D266  D(88,78,79,102)         0.0018         estimate D2E/DX2                !
 ! D267  D(77,78,88,87)         -0.0004         estimate D2E/DX2                !
 ! D268  D(77,78,88,96)       -179.9996         estimate D2E/DX2                !
[...]
       Atomic Center   42 is at   3.639627  3.672550  0.000042
       Atomic Center   43 is at   4.250685 -1.319648  0.000587
       Atomic Center   44 is at  12.433111 -3.006756  0.000339
       Atomic Center   45 is at  11.821750  1.985304 -0.000139
       Atomic Center   46 is at   8.491676 -3.393246  1.286957
       Atomic Center   47 is at  10.225863 -3.756954  1.285987
       Atomic Center   48 is at   9.617021 -2.346984  2.174865
       Atomic Center   49 is at   9.616767 -2.347454 -2.173973
       Atomic Center   50 is at  10.225713 -3.757233 -1.284862
       Atomic Center   51 is at   8.491525 -3.393523 -1.285708
       Atomic Center   52 is at   7.580890  4.059010 -1.286468
       Atomic Center   53 is at   6.455552  3.012713 -2.174363
       Atomic Center   54 is at   5.846674  4.422686 -1.285534
       Atomic Center   55 is at   7.580987  4.059266  1.286246
       Atomic Center   56 is at   5.846771  4.422944  1.285369
       Atomic Center   57 is at   6.455714  3.013148  2.174435
       Atomic Center   58 is at  15.159790 -2.452350  0.000099
       Atomic Center   59 is at   0.914209  3.118416  0.000140
       Atomic Center   60 is at  14.759097  1.177170 -0.000243
       Atomic Center   61 is at  14.803688 -1.430842  0.000023
       Atomic Center   62 is at  15.659921 -0.359152 -0.000140
       Atomic Center   63 is at  -4.005694  0.885827  0.000335
       Atomic Center   64 is at  -3.304856  2.148894  0.000034
       Atomic Center   65 is at  -3.183335 -0.231509  0.000661
       Atomic Center   66 is at  -3.876662  3.356061 -0.000270
       Atomic Center   67 is at  -1.373297  3.458332 -0.000217
       Atomic Center   68 is at  -2.668319  4.467105 -0.000576
       Atomic Center   69 is at  -1.242427 -1.121812  0.000967
       Atomic Center   70 is at  -3.633790 -1.219534  0.000891
       Atomic Center   71 is at  -1.771959 -0.173793  0.000693
       Atomic Center   72 is at  -1.844790  2.208540  0.000067
       Atomic Center   73 is at  -1.043480  1.006835  0.000394
       Atomic Center   74 is at -20.520460 -1.821685 -0.000746
       Atomic Center   75 is at -19.614073 -2.833313 -0.000072
       Atomic Center   76 is at -19.778509 -0.234860 -0.001412
       Atomic Center   77 is at -13.576934 -1.794039  0.000491
       Atomic Center   78 is at -14.383837 -0.634035 -0.000237
       Atomic Center   79 is at -13.810759  0.644228 -0.000783
       Atomic Center   80 is at -12.424844  0.743960 -0.000599
       Atomic Center   81 is at -11.617912 -0.415985  0.000121
       Atomic Center   82 is at -12.191268 -1.694615  0.000675
       Atomic Center   83 is at -11.565183  2.008091 -0.001094
       Atomic Center   84 is at -10.156371  1.413488 -0.000585
       Atomic Center   85 is at -10.212818 -0.007357  0.000127
       Atomic Center   86 is at -14.436978 -3.058115  0.000981
       Atomic Center   87 is at -15.845884 -2.463444  0.000425
       Atomic Center   88 is at -15.790152 -1.043480 -0.000281
       Atomic Center   89 is at  -8.944842  2.074942 -0.000755
       Atomic Center   90 is at  -7.751740  1.317230 -0.000219
       Atomic Center   91 is at  -7.831687 -0.101057  0.000484
       Atomic Center   92 is at  -9.052256 -0.778583  0.000672
       Atomic Center   93 is at -17.057685 -3.126360  0.000540
       Atomic Center   94 is at -18.250590 -2.371712 -0.000057
       Atomic Center   95 is at -18.172536 -0.953168 -0.000758
       Atomic Center   96 is at -16.950353 -0.274568 -0.000878
       Atomic Center   97 is at -11.816914  2.859605  1.263670
       Atomic Center   98 is at -11.816525  2.858358 -1.266772
       Atomic Center   99 is at -14.185504 -3.908335  1.266626
       Atomic Center  100 is at -14.185046 -3.909627 -1.263703
       Atomic Center  101 is at -11.565041 -2.584083  0.001230
       Atomic Center  102 is at -14.437003  1.533667 -0.001341
       Atomic Center  103 is at -17.108282 -4.212976  0.001079
       Atomic Center  104 is at -16.911480  0.811220 -0.001419
       Atomic Center  105 is at  -8.890527  3.161145 -0.001301
       Atomic Center  106 is at  -9.092820 -1.864196  0.001209
       Atomic Center  107 is at -12.849505  3.227095  1.284304
       Atomic Center  108 is at -11.150296  3.729577  1.283491
       Atomic Center  109 is at -11.643673  2.275601  2.173135
       Atomic Center  110 is at -11.643002  2.273459 -2.175608
       Atomic Center  111 is at -11.149903  3.728312 -1.287243
       Atomic Center  112 is at -12.849110  3.225826 -1.288086
       Atomic Center  113 is at -13.152539 -4.277442 -1.284391
       Atomic Center  114 is at -14.358145 -3.325527 -2.173135
       Atomic Center  115 is at -14.851827 -4.779525 -1.283712
       Atomic Center  116 is at -13.153003 -4.276125  1.288064
       Atomic Center  117 is at -14.852291 -4.778213  1.287279
       Atomic Center  118 is at -14.358936 -3.323306  2.175397
       Atomic Center  119 is at  -6.128983  2.830846 -0.000797
       Atomic Center  120 is at -19.889232 -3.882887  0.000408
       Atomic Center  121 is at  -6.231366 -0.820050  0.001034
       Atomic Center  122 is at  -6.399854  1.783704 -0.000303
       Atomic Center  123 is at  -5.457394  0.784915  0.000292
       Atomic Center  124 is at -21.599827 -1.899822 -0.000902
   62816 points will be used for fitting atomic charges
 Fitting point charges to electrostatic potential
 Charges from ESP fit, RMS=   0.00432 RRMS=   0.45569:
 ESP charges:
               1
     1  C    0.024496
     2  C    0.191725
     3  C   -0.175908
     4  N   -0.338412
     5  N   -0.432728
     6  S    0.304893
     7  H    0.102632
     8  H    0.157878
     9  C   -0.054352
    10  C    0.382267
    11  C   -0.261585
    12  H    0.141052
    13  C    0.035913
    14  C   -0.161863
    15  S   -0.176013
    16  C   -0.019849
    17  C    0.055843
    18  C   -0.203721
    19  C   -0.024379
    20  C    0.020866
    21  C   -0.178860
    22  C    0.414918
    23  C   -0.021384
    24  C    0.007375
    25  C    0.328778
    26  C    0.002306
    27  C   -0.007903
    28  C   -0.256272
    29  C    0.115267
    30  C    0.109487
    31  C   -0.228286
    32  C   -0.240884
    33  C    0.110593
    34  C    0.098669
    35  C   -0.210060
    36  C   -0.190785
    37  C   -0.190977
    38  C   -0.181118
    39  C   -0.182143
    40  H    0.088089
    41  H    0.091396
    42  H    0.145098
    43  H    0.179862
    44  H    0.149372
    45  H    0.186690
    46  H    0.043770
    47  H    0.033347
    48  H    0.006219
    49  H    0.006200
    50  H    0.033583
    51  H    0.043687
    52  H    0.048055
    53  H    0.008099
    54  H    0.037226
    55  H    0.047800
    56  H    0.037044
    57  H    0.007704
    58  H    0.090500
    59  H    0.089354
    60  S   -0.182186
    61  C   -0.158272
    62  C    0.045785
    63  C    0.008717
    64  C    0.219588
    65  C   -0.153228
    66  N   -0.315443
    67  N   -0.315361
    68  S    0.264486
    69  H    0.160314
    70  H    0.155951
    71  C   -0.167641
    72  C    0.217757
    73  C    0.024079
    74  C   -0.109611
    75  C   -0.268082
    76  S   -0.077865
    77  C   -0.084657
    78  C    0.091839
    79  C   -0.236307
    80  C    0.023082
    81  C    0.008264
    82  C   -0.156701
    83  C    0.329581
    84  C   -0.005372
    85  C    0.003798
    86  C    0.393967
    87  C    0.000432
    88  C   -0.031798
    89  C   -0.258491
    90  C    0.156234
    91  C    0.074956
    92  C   -0.205455
    93  C   -0.313568
    94  C    0.262607
    95  C   -0.009619
    96  C   -0.169859
    97  C   -0.174777
    98  C   -0.172629
    99  C   -0.176185
   100  C   -0.176501
   101  H    0.087863
   102  H    0.106462
   103  H    0.149843
   104  H    0.163634
   105  H    0.148076
   106  H    0.177764
   107  H    0.042271
   108  H    0.035499
   109  H    0.006889
   110  H    0.006166
   111  H    0.035118
   112  H    0.041690
   113  H    0.040897
   114  H    0.007106
   115  H    0.031110
   116  H    0.040797
   117  H    0.031123
   118  H    0.006962
   119  H    0.097533
   120  H    0.133824
   121  S   -0.171427
   122  C   -0.195318
   123  C    0.049449
   124  H    0.164267
 Sum of ESP charges =   0.00000
 ESP charges with hydrogens summed into heavy atoms:
               1
     1  C    0.024496
     2  C    0.191725
     3  C   -0.018030
     4  N   -0.338412
     5  N   -0.432728
     6  S    0.304893
     9  C    0.048280
    10  C    0.382267
    11  C   -0.120532
    13  C    0.035913
    14  C   -0.072508
    15  S   -0.176013
    16  C   -0.019849
    17  C    0.055843
    18  C   -0.112325
    19  C   -0.024379
    20  C    0.020866
    21  C   -0.090771
    22  C    0.414918
    23  C   -0.021384
    24  C    0.007375
    25  C    0.328778
    26  C    0.002306
    27  C   -0.007903
    28  C   -0.106900
    29  C    0.115267
    30  C    0.109487
    31  C   -0.041596
    32  C   -0.095785
    33  C    0.110593
    34  C    0.098669
    35  C   -0.030198
    36  C   -0.107449
    37  C   -0.107508
    38  C   -0.088569
    39  C   -0.088764
    60  S   -0.182186
    61  C   -0.067772
    62  C    0.045785
    63  C    0.008717
    64  C    0.219588
    65  C    0.002723
    66  N   -0.315443
    67  N   -0.315361
    68  S    0.264486
    71  C   -0.007327
    72  C    0.217757
    73  C    0.024079
    74  C    0.054656
    75  C   -0.134258
    76  S   -0.077865
    77  C   -0.084657
    78  C    0.091839
    79  C   -0.129845
    80  C    0.023082
    81  C    0.008264
    82  C   -0.068837
    83  C    0.329581
    84  C   -0.005372
    85  C    0.003798
    86  C    0.393967
    87  C    0.000432
    88  C   -0.031798
    89  C   -0.110415
    90  C    0.156234
    91  C    0.074956
    92  C   -0.027690
    93  C   -0.163725
    94  C    0.262607
    95  C   -0.009619
    96  C   -0.006225
    97  C   -0.090118
    98  C   -0.089656
    99  C   -0.097303
   100  C   -0.097387
   121  S   -0.171427
   122  C   -0.097786
   123  C    0.049449
 Charge=   0.00000 Dipole=    -0.9245     0.3351    -0.0002 Tot=     0.9833
 -----------------------------------------------------------------

              Electrostatic Properties (Atomic Units)

 -----------------------------------------------------------------
    Center     Electric         -------- Electric Field --------
               Potential          X             Y             Z
 -----------------------------------------------------------------
    1 Atom    -14.697971
    2 Atom    -14.678365
    3 Atom    -14.717299
    4 Atom    -18.323830
    5 Atom    -18.325498
    6 Atom    -59.096537
    7 Atom     -1.091252
    8 Atom     -1.089740
    9 Atom    -14.716238
   10 Atom    -14.682783
   11 Atom    -14.719912
   12 Atom     -1.088282
   13 Atom    -14.696558
   14 Atom    -14.735654
   15 Atom    -59.165033
   16 Atom    -14.737095
   17 Atom    -14.732407
   18 Atom    -14.734396
   19 Atom    -14.737112
   20 Atom    -14.732404
   21 Atom    -14.734355
   22 Atom    -14.713497
   23 Atom    -14.737403
   24 Atom    -14.729835
   25 Atom    -14.713457
   26 Atom    -14.737428
   27 Atom    -14.729913
   28 Atom    -14.732600
   29 Atom    -14.726695
   30 Atom    -14.704000
   31 Atom    -14.727067
   32 Atom    -14.732706
   33 Atom    -14.726702
   34 Atom    -14.704106
   35 Atom    -14.727218
   36 Atom    -14.742627
   37 Atom    -14.742627
   38 Atom    -14.742535
   39 Atom    -14.742535
   40 Atom     -1.100248
   41 Atom     -1.100319
   42 Atom     -1.099990
   43 Atom     -1.094171
   44 Atom     -1.099942
   45 Atom     -1.093997
   46 Atom     -1.120956
   47 Atom     -1.121036
   48 Atom     -1.123720
   49 Atom     -1.123720
   50 Atom     -1.121036
   51 Atom     -1.120956
   52 Atom     -1.120852
   53 Atom     -1.123636
   54 Atom     -1.120937
   55 Atom     -1.120852
   56 Atom     -1.120937
   57 Atom     -1.123636
   58 Atom     -1.099538
   59 Atom     -1.099745
   60 Atom    -59.164734
   61 Atom    -14.735464
   62 Atom    -14.696827
   63 Atom    -14.699820
   64 Atom    -14.675729
   65 Atom    -14.717694
   66 Atom    -18.321736
   67 Atom    -18.321747
   68 Atom    -59.093672
   69 Atom     -1.089698
   70 Atom     -1.089829
   71 Atom    -14.717544
   72 Atom    -14.675712
   73 Atom    -14.699842
   74 Atom    -14.709217
   75 Atom    -14.732491
   76 Atom    -59.164289
   77 Atom    -14.738794
   78 Atom    -14.733977
   79 Atom    -14.736013
   80 Atom    -14.738420
   81 Atom    -14.734000
   82 Atom    -14.735663
   83 Atom    -14.714430
   84 Atom    -14.738294
   85 Atom    -14.730702
   86 Atom    -14.714681
   87 Atom    -14.739210
   88 Atom    -14.732989
   89 Atom    -14.733369
   90 Atom    -14.727382
   91 Atom    -14.704683
   92 Atom    -14.728053
   93 Atom    -14.734231
   94 Atom    -14.727295
   95 Atom    -14.706769
   96 Atom    -14.728744
   97 Atom    -14.743399
   98 Atom    -14.743399
   99 Atom    -14.743365
  100 Atom    -14.743365
  101 Atom     -1.101517
  102 Atom     -1.101819
  103 Atom     -1.100934
  104 Atom     -1.095832
  105 Atom     -1.100633
  106 Atom     -1.094953
  107 Atom     -1.121737
  108 Atom     -1.121781
  109 Atom     -1.124495
  110 Atom     -1.124495
  111 Atom     -1.121781
  112 Atom     -1.121737
  113 Atom     -1.121696
  114 Atom     -1.124471
  115 Atom     -1.121683
  116 Atom     -1.121696
  117 Atom     -1.121683
  118 Atom     -1.124471
  119 Atom     -1.100062
  120 Atom     -1.092443
  121 Atom    -59.165494
  122 Atom    -14.735940
  123 Atom    -14.697019
  124 Atom     -1.077863
 -----------------------------------------------------------------
 Leave Link  602 at Wed Oct 11 00:49:27 2023, MaxMem=  1207959552 cpu:              66.3 elap:               6.6
 (Enter /opt/apps/chemistry/Gaussian/g16/l9999.exe)
 1\1\GINC-NODE057\FOpt\RB3LYP\6-31G(d)\C68H46N4S6\HMAKKI\11-Oct-2023\0\
 \#p opt b3lyp/6-31g* pop=chelpg\\Gaussian optimization calculation on 
 oligomer4\\0,1\C,-17.1187101314,-0.3532491979,0.00020136\C,-17.9057709
 953,-1.5677549472,0.0002402175\C,-17.845391145,0.8272612192,0.00023826
 16\N,-17.4390511548,-2.8205472072,0.0001586963\N,-19.9529546486,-2.704
 3021505,0.0002774814\S,-18.74690402,-3.8183463504,0.0004528351\H,-19.7
 436370884,1.856537937,0.0003108494\H,-17.3133195229,1.7739189407,0.000
 1901376\C,-19.268395287,0.8797228095,0.0003047596\C,-19.3606984019,-1.
 5040478562,0.0003041667\C,-20.0387356463,-0.2535788771,0.0003328814\H,
 -21.1226238845,-0.2272205925,0.0003627912\C,-0.412100911,1.0266806762,
 -0.0004189838\C,-1.2705608805,2.0984723042,-0.0002868133\S,-1.31327572
 34,-0.5104112867,-0.0005812559\C,-7.3598685417,1.5494505534,-0.0001764
 696\C,-6.6490900321,0.3277920855,-0.0003418124\C,-7.323494379,-0.90060
 30493,-0.0004407704\C,-8.7125885386,-0.888068156,-0.0003678622\C,-9.42
 32825563,0.3335596029,-0.0002002751\C,-8.7489388011,1.5619431658,-0.00
 01055917\C,-9.6716333338,-2.07855297,-0.0004399705\C,-11.0276965129,-1
 .3719284106,-0.0002844235\C,-10.8567572773,0.0395907187,-0.000148257\C
 ,-6.4008356148,2.7399328435,-0.000091392\C,-5.0447600696,2.0333170928,
 -0.0002155905\C,-5.2158123879,0.6217197892,-0.0003673198\C,-12.2889908
 912,-1.9332057277,-0.0002637096\C,-13.4163910811,-1.0814389938,-0.0001
 039266\C,-13.2224035108,0.3254577217,0.000027397\C,-11.9509403449,0.90
 22220072,0.0000079826\C,-3.7836181325,2.5946090792,-0.0001878535\C,-2.
 6557991983,1.7428665764,-0.0003091824\C,-2.8501545397,0.3355974963,-0.
 0004656624\C,-4.121426359,-0.2409468633,-0.0004980714\C,-9.4893701244,
 -2.9466526938,-1.2658410187\C,-9.4892220941,-2.9469261281,1.2647522262
 \C,-6.5832253135,3.6082760942,-1.2652965408\C,-6.5831299949,3.60802295
 52,1.2652996925\H,-9.301481284,2.498963871,0.0000241085\H,-6.770967031
 8,-1.8376216044,-0.0005668005\H,-3.6414702066,3.672828119,-0.000068902
 5\H,-4.2497269716,-1.3197126009,-0.0006140235\H,-12.431205157,-3.01141
 17551,-0.0003656572\H,-11.8226451881,1.980990517,0.0001119585\H,-8.489
 5532865,-3.3956899383,-1.2869833477\H,-10.2235365349,-3.7603716459,-1.
 2860138679\H,-9.6154851933,-2.3500595279,-2.1748916988\H,-9.6152315569
 ,-2.3505297862,2.1739466595\H,-10.2233855719,-3.7606499482,1.284834852
 5\H,-8.4894026236,-3.3959674437,1.28568097\H,-7.5829494241,4.057075631
 3,1.2864408373\H,-6.4570242445,3.0114105299,2.1743366504\H,-5.84893796
 98,4.4217251503,1.2855070699\H,-7.5830469379,4.0573315725,-1.286273077
 3\H,-5.8490349889,4.4219825115,-1.2853959317\H,-6.457186888,3.01184513
 31,-2.1744618639\H,-15.1581948759,-2.4585366592,-0.0001255845\H,-0.915
 7416523,3.1202228939,-0.0001668074\S,-14.759537835,1.171207529,0.00021
 62791\C,-14.8026660922,-1.4368287025,-0.0000497585\C,-15.6595004422,-0
 .3656193761,0.0001136578\C,4.0054134573,0.8903956362,-0.0003616907\C,3
 .3038664518,2.1530689914,-0.0000608711\C,3.1836818588,-0.2274021648,-0
 .0006879726\N,3.8749950079,3.3605566786,0.0002437313\N,1.3715733016,3.
 4614229536,0.0001902211\S,2.6660282767,4.4709223566,0.0005490166\H,1.2
 432735503,-1.1187935756,-0.0009932658\H,3.6346907022,-1.2151735286,-0.
 0009177414\C,1.7722731081,-0.1704778039,-0.0007196962\C,1.8437674065,2
 .2118956546,-0.0000935598\C,1.0431315688,1.0097414194,-0.0004210029\C,
 20.5216960822,-1.807847935,0.00071876\C,19.6158765164,-2.8199846589,0.
 0000448207\S,19.7788549119,-0.2214395293,0.0013851925\C,13.5781556329,
 -1.7840985829,-0.0005176091\C,14.3844075179,-0.6236424541,0.0002100348
 \C,13.8106123174,0.6542989196,0.000756115\C,12.4246419543,0.7532532166
 ,0.0005717384\C,11.6183600932,-0.4071442359,-0.0001474526\C,12.1924343
 929,-1.6854529744,-0.0007017143\C,11.5642716957,2.0169015708,0.0010668
 953\C,10.1557932856,1.4215082836,0.000557997\C,10.2130378877,0.0006953
 052,-0.0001533724\C,14.4389091317,-3.0476915599,-0.0010074256\C,15.847
 4811419,-2.452230443,-0.0004517902\C,15.7909520747,-1.0322978555,0.000
 2539295\C,8.9438933728,2.0822823132,0.0007285774\C,7.7512169839,1.3239
 003209,0.0001921781\C,7.8319596838,-0.0943412268,-0.0005109415\C,9.052
 9082001,-0.7711825043,-0.0006988773\C,17.0596538944,-3.1144659365,-0.0
 005668196\C,18.2521350297,-2.3591494146,0.0000299975\C,18.1732851427,-
 0.9406493502,0.0007307551\C,16.9507215283,-0.2627353608,0.0008513852\C
 ,11.8155244067,2.8685562587,-1.2636972292\C,11.8151364945,2.8673092987
 ,1.2667456515\C,14.1879120743,-3.8980526383,-1.2666523395\C,14.1874551
 472,-3.8993453476,1.2636764421\H,11.5667064791,-2.5752717079,-0.001256
 9185\H,14.4363573732,1.5440895919,0.0013142988\H,17.1108606464,-4.2010
 540857,-0.0011056905\H,16.9112386433,0.8230306279,0.0013921998\H,8.888
 968518,3.1684547884,0.0012744639\H,9.0940820939,-1.856772594,-0.001235
 705\H,12.8479088905,3.2366263502,-1.284330301\H,11.1484180691,3.738154
 5738,-1.2835176661\H,11.6426109071,2.2844553926,-2.1731621109\H,11.641
 9416806,2.2823133463,2.1755814889\H,11.1480257763,3.7368891331,1.28721
 64344\H,12.8475149664,3.2353573316,1.2880588865\H,13.1551539284,-4.267
 7397948,1.2843643328\H,14.3602258755,-3.3151480444,2.1731080099\H,14.8
 547241234,-4.7688690386,1.2836850398\H,13.1556173311,-4.2664221321,-1.
 2880911266\H,14.8551866868,-4.7675569012,-1.2873057637\H,14.3610152413
 ,-3.3129265586,-2.1754233175\H,6.1276103028,2.8366060957,0.000770008\H
 ,19.8916250085,-3.8694045936,-0.0004342652\S,6.2320417944,-0.814232036
 1,-0.0010611955\C,6.3990689267,1.7896161101,0.0002758535\C,5.457169292
 3,0.7902985378,-0.0003186304\H,21.6011071876,-1.88537917,0.0008749022\
 \Version=ES64L-G16RevA.03\State=1-A\HF=-5227.2003862\RMSD=4.985e-09\RM
 SF=3.935e-06\Dipole=0.3853099,0.1158357,0.0001327\Quadrupole=8.4083016
 ,17.101021,-25.5093226,-25.3637982,-0.0054521,0.0109208\PG=C01 [X(C68H
 46N4S6)]\\@


 YOU KNOW YOU'VE SPOKEN TOO LONG WHEN THE AUDIENCE STOPS LOOKING AT
 THEIR WATCHES AND STARTS SHAKING THEM.
 Job cpu time:       0 days  6 hours 31 minutes 16.0 seconds.
 Elapsed time:       0 days  0 hours 39 minutes 19.7 seconds.
 File lengths (MBytes):  RWF=   1018 Int=      0 D2E=      0 Chk=    128 Scr=      1
 Normal termination of Gaussian 16 at Wed Oct 11 00:49:27 2023.
