124
/users/hmakki/sharedscratch/GAMMPS/Polymers/TIFBT/TIFBT-charge.log	Energy: -3280117.7386821
C         17.11912       -0.34596       -0.00023
C         17.90687       -1.56003       -0.00027
C         17.84514        0.83496       -0.00026
N         17.44085       -2.81308       -0.00018
N         19.95469       -2.69543       -0.00030
S         18.74926       -3.81015       -0.00048
H         19.74281        1.86530       -0.00034
H         17.31254        1.78131       -0.00022
C         19.26812        0.88821       -0.00033
C         19.36176       -1.49550       -0.00033
C         20.03909       -0.24465       -0.00036
H         21.12297       -0.21769       -0.00039
C          0.41174        1.02459        0.00039
C          1.26960        2.09686        0.00026
S          1.31378       -0.51199        0.00055
C          7.35922        1.55126        0.00015
C          6.64912        0.32920        0.00032
C          7.32422       -0.89881        0.00041
C          8.71330       -0.88550        0.00034
C          9.42331        0.33653        0.00017
C          8.74828        1.56453        0.00008
C          9.67302       -2.07545        0.00041
C         11.02868       -1.36806        0.00026
C         10.85695        0.04336        0.00012
C          6.39952        2.74120        0.00006
C          5.04384        2.03383        0.00019
C          5.21568        0.62233        0.00034
C         12.29029       -1.92863        0.00024
C         13.41721       -1.07623        0.00008
C         13.22244        0.33056       -0.00005
C         11.95065        0.90661       -0.00003
C          3.78238        2.59441        0.00016
C          2.65504        1.74204        0.00028
C          2.85018        0.33488        0.00044
C          4.12178       -0.24096        0.00047
C          9.49124       -2.94365        1.26581
C          9.49109       -2.94392       -1.26478
C          6.58142        3.60965        1.26527
C          6.58132        3.60940       -1.26533
H          9.30030        2.50186       -0.00005
H          6.77222       -1.83614        0.00054
H          3.63963        3.67255        0.00004
H          4.25068       -1.31965        0.00059
H         12.43311       -3.00676        0.00034
H         11.82175        1.98530       -0.00014
H          8.49168       -3.39325        1.28696
H         10.22586       -3.75695        1.28599
H          9.61702       -2.34698        2.17487
H          9.61677       -2.34745       -2.17397
H         10.22571       -3.75723       -1.28486
H          8.49152       -3.39352       -1.28571
H          7.58089        4.05901       -1.28647
H          6.45555        3.01271       -2.17436
H          5.84667        4.42269       -1.28553
H          7.58099        4.05927        1.28625
H          5.84677        4.42294        1.28537
H          6.45571        3.01315        2.17443
H         15.15979       -2.45235        0.00010
H          0.91421        3.11842        0.00014
S         14.75910        1.17717       -0.00024
C         14.80369       -1.43084        0.00002
C         15.65992       -0.35915       -0.00014
C         -4.00569        0.88583        0.00034
C         -3.30486        2.14889        0.00003
C         -3.18334       -0.23151        0.00066
N         -3.87666        3.35606       -0.00027
N         -1.37330        3.45833       -0.00022
S         -2.66832        4.46711       -0.00058
H         -1.24243       -1.12181        0.00097
H         -3.63379       -1.21953        0.00089
C         -1.77196       -0.17379        0.00069
C         -1.84479        2.20854        0.00007
C         -1.04348        1.00683        0.00039
C        -20.52046       -1.82168       -0.00075
C        -19.61407       -2.83331       -0.00007
S        -19.77851       -0.23486       -0.00141
C        -13.57693       -1.79404        0.00049
C        -14.38384       -0.63404       -0.00024
C        -13.81076        0.64423       -0.00078
C        -12.42484        0.74396       -0.00060
C        -11.61791       -0.41598        0.00012
C        -12.19127       -1.69461        0.00068
C        -11.56518        2.00809       -0.00109
C        -10.15637        1.41349       -0.00059
C        -10.21282       -0.00736        0.00013
C        -14.43698       -3.05811        0.00098
C        -15.84588       -2.46344        0.00042
C        -15.79015       -1.04348       -0.00028
C         -8.94484        2.07494       -0.00076
C         -7.75174        1.31723       -0.00022
C         -7.83169       -0.10106        0.00048
C         -9.05226       -0.77858        0.00067
C        -17.05768       -3.12636        0.00054
C        -18.25059       -2.37171       -0.00006
C        -18.17254       -0.95317       -0.00076
C        -16.95035       -0.27457       -0.00088
C        -11.81691        2.85961        1.26367
C        -11.81653        2.85836       -1.26677
C        -14.18550       -3.90834        1.26663
C        -14.18505       -3.90963       -1.26370
H        -11.56504       -2.58408        0.00123
H        -14.43700        1.53367       -0.00134
H        -17.10828       -4.21298        0.00108
H        -16.91148        0.81122       -0.00142
H         -8.89053        3.16114       -0.00130
H         -9.09282       -1.86420        0.00121
H        -12.84951        3.22709        1.28430
H        -11.15030        3.72958        1.28349
H        -11.64367        2.27560        2.17313
H        -11.64300        2.27346       -2.17561
H        -11.14990        3.72831       -1.28724
H        -12.84911        3.22583       -1.28809
H        -13.15254       -4.27744       -1.28439
H        -14.35815       -3.32553       -2.17313
H        -14.85183       -4.77952       -1.28371
H        -13.15300       -4.27613        1.28806
H        -14.85229       -4.77821        1.28728
H        -14.35894       -3.32331        2.17540
H         -6.12898        2.83085       -0.00080
H        -19.88923       -3.88289        0.00041
S         -6.23137       -0.82005        0.00103
C         -6.39985        1.78370       -0.00030
C         -5.45739        0.78492        0.00029
H        -21.59983       -1.89982       -0.00090
